*******************************************************
*** WorkDir is not cleaned in parallel environment! ***
*******************************************************
   This run of MOLCAS is using the pymolcas driver

                             OPE
                             OPE          NMOL  CASOP  ENMOLC A   SO
                 OPE        NMOLC        AS  OP EN  MO LC     AS  OP
                OPENM       OL CA        SO  PE NM  OL CA     SOP EN
                OP EN      MO   LC       AS  OP ENMOL  CASO   PENMOL
                OP  EN     MO   LC       AS  OP EN     MO     LC ASO
               OP   E  NMOL  C  AS       OP  EN MO     LC     AS  OP
               OP  E   NMO   LC AS        OPEN  MO     LCASOP EN   M
               O  PEN   MO  LCA  SO
            OPE   NMO   L   CAS    OP
        OPENMOL  CASOP     ENMOL   CASOPE
     OPENMOLCA   SOPENMOLCASOPEN   MOLCASOPE
    OPENMOLCAS   OP           EN   MOL    CAS
    OPENMOLCAS       OP  ENM        O     LCA
    OPENMOLCAS    OPEN  MOLCASO     P  E  NMO
    OPENMOLCAS     OP               E  N  MOL
    OPENMOLCA   SO           PENM   O  L  CAS    OPEN    MO    LCAS
    OPENMOLCA   SOP           ENM   O  L  CAS   OP  EN  MOLC  AS   O
    OPENMOLCA   SOPE           NM      O  LCA   S      OP  EN MO
    OPENMOLC                AS         O  PEN   M      OL  CA  SOPE
    OPENMO        LCASOPE  NMOL        C  ASO   P      ENMOLC     AS
    OPE     NMO      LCA  SO     P     E   NM   OL  CA SO  PE N   MO
          OPENMOLCA            SOPE   NMO        LCAS  O    P  ENMO
     OPENMOLCASOPENMOLCASOPENMOLCASOPENMOLCA
        OPENMOLCASOPENMOLCASOPENMOLCASOPE
            OPENMOLCASOPENMOLCASOPENM
               OPENMOLCASOPENMOLCA        version: 21.06
                   OPENMOLCASO
                       OPE                tag: 24-g18de2a7

 OpenMolcas is free software; you can redistribute it and/or modify it
 under the terms of the GNU Lesser General Public License version 2.1.
 OpenMolcas is distributed in the hope that it will be useful, but it
 is provided "as is" and without any express or implied warranties.
 For more details see the full text of the license in the file
 LICENSE or in <http://www.gnu.org/licenses/>.

                 Copyright (C) The OpenMolcas Authors
           For the author list and the recommended citation,
                   consult the file CONTRIBUTORS.md

           *************************************************
           * pymolcas version py2.18                       *
           *   build 7a16d2f9e823a0c2ad601740b42a4b0e      *
           *   (after the EMIL interpreter by V. Veryazov) *
           *************************************************

configuration info
------------------
Host name: dirac.bu.edu (Linux)
C Compiler ID: GNU
C flags: -std=gnu99 -fopenmp
Fortran Compiler ID: GNU
Fortran flags: -fno-aggressive-loop-optimizations -cpp -fdefault-integer-8 -fopenmp
Definitions: _MOLCAS_;_I8_;_LINUX_
Parallel: OFF (GA=OFF)


   ----------------------------------------------------------------------
  |
  |             Project: bad_diffuse
  |      Submitted from: /scratch/gayverjr/bad_diffuse.3328748295
  |        Scratch area: /scratch/gayverjr/bad_diffuse.3328748295
  |     Save outputs to: /home/gayverjr/opencap_examples
  |              Molcas: /home/qcsoftware/OpenMolcas/builds/molcas_latest
  |
  | Scratch area is NOT empty
  |
  |      MOLCAS_DRIVER = /home/qcsoftware/bin/pymolcas
  | MOLCAS_NEW_WORKDIR = YES
  |      MOLCAS_NPROCS = 16
  |      MOLCAS_SOURCE = /home/qcsoftware/OpenMolcas/Molcas_src
  |   MOLCAS_STRUCTURE = 0
  |
   ----------------------------------------------------------------------

++ ---------   Input file   ---------

&GATEWAY
Expert
Basis set
X....0s0p3d. / Inline
    0.00   2
     0    0
     0    0
     3    3
               1.00000E-10
               1.00000E-11
               1.00000E-12
      1.000000E+00           0.000000E+00           0.000000E+00
      0.000000E+00           1.000000E+00           0.000000E+00
      0.000000E+00           0.000000E+00           1.000000E+00
X1  0.000  0.000  0.000
End of basis
Basis set
 N    / inline
      7.00   3
    24    6
               1.142000E+04
               1.712000E+03
               3.893000E+02
               1.100000E+02
               3.557000E+01
               1.254000E+01
               4.644000E+00
               1.293000E+00
               5.118000E-01
               1.787000E-01
               1.142000E+04
               1.712000E+03
               3.893000E+02
               1.100000E+02
               3.557000E+01
               1.254000E+01
               4.644000E+00
               1.293000E+00
               5.118000E-01
               1.787000E-01
               1.293000E+00
               1.787000E-01
               0.08935
               0.04468
      5.230000E-04           0.00000000             0.00000000             0.00000000             0.00000000             0.00000000
      4.045000E-03           0.00000000             0.00000000             0.00000000             0.00000000             0.00000000
      2.077500E-02           0.00000000             0.00000000             0.00000000             0.00000000             0.00000000
      8.072700E-02           0.00000000             0.00000000             0.00000000             0.00000000             0.00000000
      2.330740E-01           0.00000000             0.00000000             0.00000000             0.00000000             0.00000000
      4.335010E-01           0.00000000             0.00000000             0.00000000             0.00000000             0.00000000
      3.474720E-01           0.00000000             0.00000000             0.00000000             0.00000000             0.00000000
      4.126200E-02           0.00000000             0.00000000             0.00000000             0.00000000             0.00000000
     -8.508000E-03           0.00000000             0.00000000             0.00000000             0.00000000             0.00000000
      2.384000E-03           0.00000000             0.00000000             0.00000000             0.00000000             0.00000000
      0.00000000            -1.150000E-04           0.00000000             0.00000000             0.00000000             0.00000000
      0.00000000            -8.950000E-04           0.00000000             0.00000000             0.00000000             0.00000000
      0.00000000            -4.624000E-03           0.00000000             0.00000000             0.00000000             0.00000000
      0.00000000            -1.852800E-02           0.00000000             0.00000000             0.00000000             0.00000000
      0.00000000            -5.733900E-02           0.00000000             0.00000000             0.00000000             0.00000000
      0.00000000            -1.320760E-01           0.00000000             0.00000000             0.00000000             0.00000000
      0.00000000            -1.725100E-01           0.00000000             0.00000000             0.00000000             0.00000000
      0.00000000             1.518140E-01           0.00000000             0.00000000             0.00000000             0.00000000
      0.00000000             5.999440E-01           0.00000000             0.00000000             0.00000000             0.00000000
      0.00000000             3.874620E-01           0.00000000             0.00000000             0.00000000             0.00000000
      0.00000000             0.00000000             1.000000E+00           0.00000000             0.00000000             0.00000000
      0.00000000             0.00000000             0.00000000             1.000000E+00           0.00000000             0.00000000
      0.00000000             0.00000000             0.00000000             0.00000000             1.000                  0.00000000
      0.00000000             0.00000000             0.00000000             0.00000000             0.00000000             1.000
    12    8
               2.663000E+01
               5.948000E+00
               1.742000E+00
               5.550000E-01
               1.725000E-01
               5.550000E-01
               1.725000E-01
               0.115
               0.07667
               0.05111
               0.03407
               0.02271
      1.467000E-02           0.00000000             0.00000000             0.00000000             0.00000000             0.00000000             0.00000000             0.00000000
      9.176400E-02           0.00000000             0.00000000             0.00000000             0.00000000             0.00000000             0.00000000             0.00000000
      2.986830E-01           0.00000000             0.00000000             0.00000000             0.00000000             0.00000000             0.00000000             0.00000000
      4.984870E-01           0.00000000             0.00000000             0.00000000             0.00000000             0.00000000             0.00000000             0.00000000
      3.370230E-01           0.00000000             0.00000000             0.00000000             0.00000000             0.00000000             0.00000000             0.00000000
      0.00000000             1.000000E+00           0.00000000             0.00000000             0.00000000             0.00000000             0.00000000             0.00000000
      0.00000000             0.00000000             1.000000E+00           0.00000000             0.00000000             0.00000000             0.00000000             0.00000000
      0.00000000             0.00000000             0.00000000             1.000                  0.00000000             0.00000000             0.00000000             0.00000000
      0.00000000             0.00000000             0.00000000             0.00000000             1.000                  0.00000000             0.00000000             0.00000000
      0.00000000             0.00000000             0.00000000             0.00000000             0.00000000             1.000                  0.00000000             0.00000000
      0.00000000             0.00000000             0.00000000             0.00000000             0.00000000             0.00000000             1.000                  0.00000000
      0.00000000             0.00000000             0.00000000             0.00000000             0.00000000             0.00000000             0.00000000             1.000
     4    4
               1.654000E+00
               4.690000E-01
               0.2345
               0.11725
      1.000000E+00           0.00000000             0.00000000             0.00000000
      0.00000000             1.000000E+00           0.00000000             0.00000000
      0.00000000             0.00000000             1.000                  0.00000000
      0.00000000             0.00000000             0.00000000             1.000
     1    1
               1.093000E+00
      1.0000000
N1  0.0  0.0  1.037
End of Basis
Symmetry
x y z

&SEWARD

&SCF

&RASSCF
RAS2     = 0 1 1 0 0 6 5 0
Inactive = 3 0 0 0 2 0 0 0
Charge = -1
Spin = 2
CIROOT = 3 3 1
Symmetry = 6

&CASPT2
Imaginary = 0.1
Multistate = all
Maxiter = 100

&RASSI
TRD1

-- ----------------------------------

--- Start Module: gateway at Tue Jul  6 10:50:55 2021 ---

()()()()()()()()()()()()()()()()()()()()()()()()()()()()()()()()()()()()()()()()()()()()()()()()()()

                                              &GATEWAY

                                   only a single process is used
                       available to each process: 20 GB of memory, 16 threads
                                             pid: 27613
()()()()()()()()()()()()()()()()()()()()()()()()()()()()()()()()()()()()()()()()()()()()()()()()()()

 ###############################################################################
 ###############################################################################
 ###                                                                         ###
 ###                                                                         ###
 ###    WARNING:  EXPERT option is ON!                                       ###
 ###                                                                         ###
 ###                                                                         ###
 ###############################################################################
 ###############################################################################
 GuessOrb option turned off!

++    Symmetry information:
      ---------------------

                    --- Group Generators ---
                    Reflection in the yz-plane  
                    Reflection in the xz-plane  
                    Reflection in the xy-plane  

                    Character Table for D2h

                             E   s(yz) s(xz) C2(z) s(xy) C2(y) C2(x)   i  
                    ag       1     1     1     1     1     1     1     1  
                    b3u      1    -1     1    -1     1    -1     1    -1  x
                    b2u      1     1    -1    -1     1     1    -1    -1  y
                    b1g      1    -1    -1     1     1    -1    -1     1  xy, Rz
                    b1u      1     1     1     1    -1    -1    -1    -1  z
                    b2g      1    -1     1    -1    -1     1    -1     1  xz, Ry
                    b3g      1     1    -1    -1    -1    -1     1     1  yz, Rx
                    au       1    -1    -1     1    -1     1     1    -1  I
--


++    Basis set information:
      ----------------------


      Basis set label: X....0S0P3D.....................................................................

      Electronic valence basis set:
      ------------------
      Associated Effective Charge   0.000000 au
      Associated Actual Charge      0.000000 au
      Nuclear Model: Point charge

      Shell  nPrim  nBasis  Cartesian Spherical Contaminant
         d       3       3                 X         


      Basis set label: N...............................................................................

      Electronic valence basis set:
      ------------------
      Associated Effective Charge   7.000000 au
      Associated Actual Charge      7.000000 au
      Nuclear Model: Point charge

      Shell  nPrim  nBasis  Cartesian Spherical Contaminant
         s      24       6        X                  
         p      12       8        X                  
         d       4       4                 X         
         f       1       1                 X         
--


++    Molecular structure info:
      -------------------------

                    ************************************************ 
                    **** Cartesian Coordinates / Bohr, Angstrom **** 
                    ************************************************ 

     Center  Label                x              y              z                     x              y              z
        1      X1               0.000000       0.000000       0.000000              0.000000       0.000000       0.000000
        2      N1               0.000000       0.000000       1.037000              0.000000       0.000000       0.548757
        3      N1               0.000000       0.000000      -1.037000              0.000000       0.000000      -0.548757

                    *************************************** 
                    *    InterNuclear Distances / Bohr    * 
                    *************************************** 

               1 X1            2 N1            3 N1    
    1 X1       0.000000
    2 N1       1.037000        0.000000
    3 N1       1.037000        2.074000        0.000000

                    ******************************************* 
                    *    InterNuclear Distances / Angstrom    * 
                    ******************************************* 

               1 X1            2 N1            3 N1    
    1 X1       0.000000
    2 N1       0.548757        0.000000
    3 N1       0.548757        1.097514        0.000000

                    ************************************** 
                    *    Valence Bond Angles / Degree    * 
                    ************************************** 
                          Atom centers                 Phi
                      2 N1       1 X1       3 N1       180.00
                      1 X1       2 N1       3 N1         0.00
                      1 X1       3 N1       2 N1         0.00
--


            Nuclear Potential Energy             23.62584378 au

--- Stop Module: gateway at Tue Jul  6 10:50:56 2021 /rc=_RC_ALL_IS_WELL_ ---
*** files: xmldump
    saved to directory /home/gayverjr/opencap_examples

--- Start Module: seward at Tue Jul  6 10:50:56 2021 ---

()()()()()()()()()()()()()()()()()()()()()()()()()()()()()()()()()()()()()()()()()()()()()()()()()()

                                              &SEWARD

                                   only a single process is used
                       available to each process: 20 GB of memory, 16 threads
                                             pid: 27634
()()()()()()()()()()()()()()()()()()()()()()()()()()()()()()()()()()()()()()()()()()()()()()()()()()

               SEWARD will generate:
                  Multipole Moment integrals up to order  2
                  Kinetic Energy integrals
                  Nuclear Attraction integrals (point charge)
                  One-Electron Hamiltonian integrals
                  Velocity integrals
                  Orbital angular momentum around ( 0.0000  0.0000  0.0000 )
                  Velocity quadrupole around ( 0.0000  0.0000  0.0000 )
                  Two-Electron Repulsion integrals

                   Integrals are discarded if absolute value <: 0.10E-13
                   Integral cutoff threshold is set to       <: 0.10E-15

                    Unitary symmetry adaptation


            Nuclear Potential Energy             23.62584378 au


      Basis set specifications :
      Symmetry species         ag   b3u  b2u  b1g  b1u  b2g  b3g  au 
      Basis functions           30   14   14    8   24   17   17    5


  Input file to MOLDEN was generated!

--- Stop Module: seward at Tue Jul  6 10:51:00 2021 /rc=_RC_ALL_IS_WELL_ ---
*** files: bad_diffuse.GssOrb bad_diffuse.guessorb.h5 bad_diffuse.guessorb.molden xmldump
    saved to directory /home/gayverjr/opencap_examples
--- Module seward spent 4 seconds ---

*** symbolic link created: INPORB -> bad_diffuse.GssOrb
--- Start Module: scf at Tue Jul  6 10:51:00 2021 ---

()()()()()()()()()()()()()()()()()()()()()()()()()()()()()()()()()()()()()()()()()()()()()()()()()()

                                                &SCF

                                   only a single process is used
                       available to each process: 20 GB of memory, 16 threads
                                             pid: 28075
()()()()()()()()()()()()()()()()()()()()()()()()()()()()()()()()()()()()()()()()()()()()()()()()()()

++    Input section:
      --------------

      Header of the integral files:
      
       Integrals generated by Gateway/Seward, Tue Jul  6 10:50:56 2021


      Cartesian coordinates in Angstrom:
      -----------------------------------------------------
      No.  Label        X            Y            Z        
      -----------------------------------------------------
       1   X1         0.00000000   0.00000000   0.00000000
       2   N1         0.00000000   0.00000000   0.54875677
       3   N1         0.00000000   0.00000000  -0.54875677
      -----------------------------------------------------
      Nuclear repulsion energy =   23.62584378
--

++    Orbital specifications:
      -----------------------

      Symmetry species               1   2   3   4   5   6   7   8
                                    ag b3u b2u b1g b1u b2g b3g  au
      Frozen orbitals                0   0   0   0   0   0   0   0
      Occupied orbitals              3   1   1   0   2   0   0   0
      Secondary orbitals            27  13  13   8  22  17  17   5
      Deleted orbitals               0   0   0   0   0   0   0   0
      Total number of orbitals      30  14  14   8  24  17  17   5
      Number of basis functions     30  14  14   8  24  17  17   5
--

      Molecular charge                           0.000

++    Optimization specifications:
      ----------------------------

      SCF Algorithm: Conventional
      Minimized density differences are used
      Number of density matrices in core                5
      Maximum number of NDDO SCF iterations           400
      Maximum number of HF SCF iterations             400
      Threshold for SCF energy change            0.10E-08
      Threshold for density matrix               0.10E-03
      Threshold for Fock matrix                  0.15E-03
      Threshold for linear dependence            0.10E-08
      Threshold at which DIIS is turned on       0.15E+00
      Threshold at which QNR/C2DIIS is turned on 0.75E-01
      Threshold for Norm(delta) (QNR/C2DIIS)     0.20E-04
      DIIS extrapolation of the SCF procedure
      All orbitals punched on: SCFORB
--

      Input vectors read from INPORB
      Orbital file label: *Guess orbitals


++ Convergence information
                                   SCF        iterations: Energy and convergence statistics

Iter     Tot. SCF        One-elec.       Two-elec.     Energy      Max Dij or  Max Fij      DNorm      TNorm      AccCon     Time
         Energy          Energy          Energy        Change      Delta Norm                                                in Sec.
   1  -108.738942996  -192.747194634    60.382407858   0.00E+00    0.13E+00*   0.15E+00*    0.58E+01   0.99E+02   None         0.
   2  -108.974843740  -194.855244866    62.254557346  -0.24E+00*   0.32E-01*   0.35E-01*    0.38E+01   0.10E+03   EDIIS        0.
   3  -108.984656854  -194.120970887    61.510470253  -0.98E-02*   0.81E-02*   0.11E-01*    0.99E+00   0.10E+03   EDIIS        0.
   4  -108.985330743  -194.308195505    61.697020982  -0.67E-03*   0.45E-02*   0.16E-02*    0.31E+00   0.10E+03   c2DIIS       0.
   5  -108.985383853  -194.263477633    61.652250001  -0.53E-04*   0.13E-02*   0.71E-03*    0.35E-01   0.10E+03   QNRc2DIIS    0.
   6  -108.985389592  -194.261876761    61.650643389  -0.57E-05*   0.63E-03*   0.23E-03*    0.28E-02   0.10E+03   QNRc2DIIS    0.
   7  -108.985390250  -194.261335581    61.650101551  -0.66E-06*   0.17E-04    0.96E-05     0.64E-03   0.10E+03   QNRc2DIIS    0.
   8  -108.985390250  -194.261275267    61.650041237  -0.75E-09    0.19E-05    0.11E-05     0.72E-04   0.10E+03   QNRc2DIIS    0.

       Convergence after  8 Macro Iterations
--

 *****************************************************************************************************************************
 *                                                                                                                           *
 *                                             SCF/KS-DFT Program, Final results                                             *
 *                                                                                                                           *
 *                                                                                                                           *
 *                                                                                                                           *
 *                                                       Final Results                                                       *
 *                                                                                                                           *
 *****************************************************************************************************************************

::    Total SCF energy                               -108.9853902503
      One-electron energy                            -194.2612752673
      Two-electron energy                              61.6500412369
      Nuclear repulsion energy                         23.6258437801
      Kinetic energy (interpolated)                   108.7288521496
      Virial theorem                                    1.0023594299
      Total spin, S(S+1)                                0.0000000000
      Total spin, S                                     0.0000000000
      Max non-diagonal density matrix element           0.0000011897
      Max non-diagonal Fock matrix element              0.0000002845


      All orbitals with orbital energies smaller than  E(LUMO)+0.5 are printed

++    Molecular orbitals:
      -------------------

      Title: SCF orbitals

      Molecular orbitals for symmetry species 1: ag 

          Orbital            1         2         3         4         5         6         7         8         9        10    
          Energy          -15.6850   -1.4722   -0.6343    0.0000    0.0000    0.0000    0.0000    0.0000    0.0000    0.0522
          Occ. No.          2.0000    2.0000    2.0000    0.0000    0.0000    0.0000    0.0000    0.0000    0.0000    0.0000

        1 X1     3d0        0.0000    0.0000    0.0000   -0.0002    0.0002   -0.0131    0.0000    1.0106    0.0003   -0.0000
        2 X1     3d0       -0.0000   -0.0000   -0.0000    0.0093   -0.0093    1.0123   -0.0000   -0.1352   -0.0000    0.0000
        3 X1     3d0        0.0000    0.0000    0.0000   -0.7084    0.7084   -0.1329    0.0000    0.0158    0.0000   -0.0000
        4 X1     3d2+       0.0000   -0.0000   -0.0000   -0.0002   -0.0002   -0.0000   -0.0131   -0.0003    1.0106    0.0000
        5 X1     3d2+      -0.0000   -0.0000    0.0000    0.0093    0.0093    0.0000    1.0123    0.0000   -0.1352   -0.0000
        6 X1     3d2+       0.0000    0.0000    0.0000   -0.7084   -0.7084   -0.0000   -0.1329   -0.0000    0.0158    0.0000
        7 N1     1s         0.9985   -0.0233    0.0066   -0.0000    0.0000   -0.0000   -0.0000   -0.0000    0.0000   -0.0023
        8 N1     1s        -0.0023    0.9002    0.3413   -0.0000    0.0000   -0.0000   -0.0000   -0.0000    0.0000   -0.0391
        9 N1     1s         0.0018   -0.0076    0.0004    0.0000   -0.0000   -0.0000   -0.0000   -0.0000    0.0000   -0.0022
       10 N1     1s         0.0046   -0.2589    0.2338   -0.0000    0.0000    0.0000    0.0000    0.0000   -0.0000    0.2712
       11 N1     1s        -0.0023   -0.0043    0.0352    0.0000   -0.0000   -0.0000   -0.0000   -0.0000   -0.0000   -1.9240
       12 N1     1s         0.0001    0.0181    0.0007   -0.0000    0.0000    0.0000   -0.0000    0.0000    0.0000    2.1883
       13 N1     2pz       -0.0070   -0.4819    0.9853   -0.0000   -0.0000   -0.0000    0.0000   -0.0000    0.0000   -0.0475
       14 N1     2pz        0.0039    0.0506   -0.0684    0.0000    0.0000    0.0000   -0.0000    0.0000   -0.0000    0.0274
       15 N1     2pz        0.0017    0.2192   -0.0939    0.0000   -0.0000   -0.0000    0.0000   -0.0000    0.0000   -0.7208
       16 N1     2pz       -0.0009   -0.1836   -0.0865   -0.0000    0.0000    0.0000   -0.0000    0.0000   -0.0000    3.3853
       17 N1     2pz        0.0051    0.1529    0.1470    0.0000   -0.0000   -0.0000    0.0000   -0.0000   -0.0000   -8.7037
       18 N1     2pz       -0.0036   -0.1629   -0.0356   -0.0000    0.0000    0.0000   -0.0000    0.0000    0.0000   12.1410
       19 N1     2pz        0.0016    0.0812    0.0016    0.0000   -0.0000   -0.0000    0.0000   -0.0000   -0.0000  -14.2329
       20 N1     2pz       -0.0003   -0.0173    0.0022   -0.0000    0.0000    0.0000   -0.0000    0.0000    0.0000   11.3833
       21 N1     3d0        0.0008    0.0268   -0.0244   -0.0000   -0.0000   -0.0000   -0.0000   -0.0000   -0.0000   -0.0050
       22 N1     3d0       -0.0009    0.0361   -0.0327    0.0000    0.0000    0.0000   -0.0000    0.0000   -0.0000    0.0587
       23 N1     3d0        0.0015   -0.0371    0.0306    0.0000   -0.0000   -0.0000    0.0000   -0.0000   -0.0000   -0.2209
       24 N1     3d0       -0.0014    0.0454   -0.0459    0.0000   -0.0000    0.0000   -0.0000    0.0000    0.0000    0.4337
       25 N1     3d2+       0.0000    0.0000    0.0000   -0.0000    0.0000   -0.0000   -0.0000    0.0000   -0.0000    0.0000
       26 N1     3d2+      -0.0000   -0.0000   -0.0000   -0.0000    0.0000    0.0000    0.0000   -0.0000    0.0000   -0.0000
       27 N1     3d2+       0.0000    0.0000    0.0000    0.0000   -0.0000   -0.0000   -0.0000    0.0000   -0.0000    0.0000
       28 N1     3d2+      -0.0000   -0.0000   -0.0000   -0.0000    0.0000    0.0000    0.0000   -0.0000    0.0000   -0.0000
       29 N1     4f0        0.0002   -0.0097    0.0080    0.0000    0.0000   -0.0000   -0.0000   -0.0000    0.0000   -0.0029
       30 N1     4f2+      -0.0000   -0.0000   -0.0000   -0.0000    0.0000    0.0000   -0.0000   -0.0000    0.0000    0.0000

          Orbital           11        12        13        14        15        16    
          Energy            0.0619    0.1470    0.2437    0.3027    0.3364    0.4792
          Occ. No.          0.0000    0.0000    0.0000    0.0000    0.0000    0.0000

        1 X1     3d0       -0.0000    0.0000   -0.0000   -0.0000    0.0000   -0.0000
        2 X1     3d0        0.0000   -0.0000    0.0000   -0.0000   -0.0000    0.0000
        3 X1     3d0       -0.0000    0.0000   -0.0000   -0.0000    0.0000   -0.0000
        4 X1     3d2+      -0.0000    0.0000   -0.0000   -0.0000   -0.0000    0.0000
        5 X1     3d2+       0.0000   -0.0000   -0.0000    0.0000    0.0000    0.0000
        6 X1     3d2+      -0.0000    0.0000    0.0000   -0.0000   -0.0000   -0.0000
        7 N1     1s         0.0022    0.0059   -0.0105    0.0000   -0.0219   -0.0237
        8 N1     1s         0.1229    0.1271   -0.1274   -0.0000   -0.3663   -0.1128
        9 N1     1s        -0.0024    0.0084   -0.0117    0.0000   -0.0014   -0.0216
       10 N1     1s        -0.1008   -0.2110   -0.2500   -0.0000   -0.8091    0.5445
       11 N1     1s         1.6813    2.0610    3.0594    0.0000    5.4508    0.7727
       12 N1     1s        -1.6264   -1.6235   -1.8489   -0.0000   -3.2501   -0.6448
       13 N1     2pz        0.0999    0.0322   -0.2094   -0.0000   -0.1265    0.2028
       14 N1     2pz        0.0333   -0.0684    0.1082   -0.0000   -0.0804    0.1908
       15 N1     2pz       -0.7169    1.8152   -2.0652    0.0000    2.3870   -4.8869
       16 N1     2pz        3.1325   -8.1963    9.0723   -0.0000  -11.7402   22.0693
       17 N1     2pz       -7.3685   20.9071  -21.2426    0.0000   31.1234  -49.6631
       18 N1     2pz       15.3075  -32.4801   39.7797   -0.0000  -38.9784   64.6174
       19 N1     2pz      -18.1302   35.9038  -34.4892    0.0000   32.6138  -43.5904
       20 N1     2pz        9.9217  -17.1911   11.9181   -0.0000  -12.4580   13.0886
       21 N1     3d0        0.0035    0.0116    0.0134    0.0000    0.0120   -0.0191
       22 N1     3d0       -0.0284   -0.0592   -0.0454   -0.0000   -0.2361   -0.0404
       23 N1     3d0        0.1723    0.2473    0.3485    0.0000    0.8455    0.1803
       24 N1     3d0       -0.4012   -0.4808   -0.9883   -0.0000   -2.1145   -1.0354
       25 N1     3d2+       0.0000   -0.0000    0.0000   -0.0095   -0.0000    0.0000
       26 N1     3d2+      -0.0000    0.0000   -0.0000    0.2390   -0.0000   -0.0000
       27 N1     3d2+       0.0000   -0.0000    0.0000   -0.5977    0.0000    0.0000
       28 N1     3d2+      -0.0000    0.0000   -0.0000    1.0941   -0.0000   -0.0000
       29 N1     4f0       -0.0018    0.0043   -0.0063    0.0000    0.0115   -0.0074
       30 N1     4f2+      -0.0000    0.0000   -0.0000   -0.0009    0.0000   -0.0000

      Molecular orbitals for symmetry species 2: b3u

          Orbital            1         2         3         4         5         6    
          Energy           -0.6142    0.0333    0.1073    0.2410    0.4327    0.4682
          Occ. No.          2.0000    0.0000    0.0000    0.0000    0.0000    0.0000

        1 N1     2px       -0.8907   -0.0551   -0.1048   -0.2380    0.0081    0.2808
        2 N1     2px        0.0201    0.0330   -0.0645    0.1171    0.0150    0.2147
        3 N1     2px       -0.0341   -0.7300    1.4787   -2.7909   -0.9256   -5.0304
        4 N1     2px        0.1729    3.0242   -6.2390   11.5741    3.0223   21.5489
        5 N1     2px       -0.1197   -6.6460   13.7272  -25.3051   -1.3345  -42.9689
        6 N1     2px        0.0228    9.5780  -19.6296   33.5942   -0.9736   44.6784
        7 N1     2px        0.0011   -9.0487   17.2809  -23.3999    0.9514  -24.5335
        8 N1     2px       -0.0020    4.4286   -6.3197    6.6416   -0.2724    5.8538
        9 N1     3d1+       0.0280    0.0020    0.0044    0.0090   -0.0182   -0.0138
       10 N1     3d1+       0.0545    0.0019    0.0138    0.0131    0.2682   -0.0252
       11 N1     3d1+      -0.0058    0.0025   -0.0011    0.0040   -0.8893   -0.0557
       12 N1     3d1+       0.0156   -0.0003   -0.0011    0.0129    2.2939    0.1540
       13 N1     4f1+      -0.0118   -0.0013   -0.0009   -0.0054    0.0091    0.0033
       14 N1     4f3+       0.0000   -0.0000    0.0000   -0.0000   -0.0000   -0.0000

      Molecular orbitals for symmetry species 3: b2u

          Orbital            1         2         3         4         5         6    
          Energy           -0.6142    0.0333    0.1073    0.2410    0.4327    0.4682
          Occ. No.          2.0000    0.0000    0.0000    0.0000    0.0000    0.0000

        1 N1     2py       -0.8907   -0.0551   -0.1048   -0.2380    0.0081    0.2808
        2 N1     2py        0.0201    0.0330   -0.0645    0.1171    0.0150    0.2147
        3 N1     2py       -0.0341   -0.7300    1.4787   -2.7909   -0.9256   -5.0304
        4 N1     2py        0.1729    3.0242   -6.2390   11.5741    3.0223   21.5489
        5 N1     2py       -0.1197   -6.6460   13.7272  -25.3051   -1.3345  -42.9689
        6 N1     2py        0.0228    9.5780  -19.6296   33.5942   -0.9736   44.6784
        7 N1     2py        0.0011   -9.0487   17.2809  -23.3999    0.9514  -24.5335
        8 N1     2py       -0.0020    4.4286   -6.3197    6.6416   -0.2724    5.8538
        9 N1     3d1-       0.0280    0.0020    0.0044    0.0090   -0.0182   -0.0138
       10 N1     3d1-       0.0545    0.0019    0.0138    0.0131    0.2682   -0.0252
       11 N1     3d1-      -0.0058    0.0025   -0.0011    0.0040   -0.8893   -0.0557
       12 N1     3d1-       0.0156   -0.0003   -0.0011    0.0129    2.2939    0.1540
       13 N1     4f3-      -0.0000    0.0000   -0.0000    0.0000    0.0000   -0.0000
       14 N1     4f1-      -0.0118   -0.0013   -0.0009   -0.0054    0.0091    0.0033

      Molecular orbitals for symmetry species 4: b1g

          Orbital            1         2         3         4    
          Energy            0.0000    0.0000    0.0000    0.3027
          Occ. No.          0.0000    0.0000    0.0000    0.0000

        1 X1     3d2-       0.0003   -0.0131    1.0106   -0.0000
        2 X1     3d2-      -0.0131    1.0123   -0.1352    0.0000
        3 X1     3d2-       1.0018   -0.1329    0.0158   -0.0000
        4 N1     3d2-       0.0000    0.0000   -0.0000   -0.0095
        5 N1     3d2-      -0.0000   -0.0000    0.0000    0.2390
        6 N1     3d2-       0.0000    0.0000   -0.0000   -0.5977
        7 N1     3d2-      -0.0000   -0.0000    0.0000    1.0941
        8 N1     4f2-       0.0000    0.0000   -0.0000   -0.0009

      Molecular orbitals for symmetry species 5: b1u

          Orbital            1         2         3         4         5         6         7         8         9    
          Energy          -15.6814   -0.7793    0.0327    0.1056    0.1652    0.2374    0.4036    0.4304    0.4629
          Occ. No.          2.0000    2.0000    0.0000    0.0000    0.0000    0.0000    0.0000    0.0000    0.0000

        1 N1     1s         0.9997    0.0055   -0.0036   -0.0030   -0.0123   -0.0144    0.0188    0.0000    0.0122
        2 N1     1s        -0.0006    0.9276   -0.0557    0.0993   -0.0417   -0.2451    0.1375    0.0000   -0.2521
        3 N1     1s         0.0006    0.0010   -0.0016   -0.0006    0.0082   -0.0078   -0.0232   -0.0000   -0.0044
        4 N1     1s        -0.0088    0.0340    2.7583    5.9984    2.7144   10.1117   -0.8917    0.0000  -21.7457
        5 N1     1s         0.1465    0.2751   -3.5055   -6.1271 -170.2758  -11.1481  367.9345    0.0000  108.0328
        6 N1     1s        -0.0345   -0.0130    1.8962    2.2650  224.0801    3.2249 -198.0806   -0.0000  -47.7424
        7 N1     2pz       -0.0044    0.4558   -0.0223    0.0336   -0.0186   -0.0861   -0.0382    0.0000   -0.0672
        8 N1     2pz        0.0005   -0.0282    0.0286    0.0539    0.1308    0.0951   -0.3063    0.0000   -0.2425
        9 N1     2pz        0.0230    0.1178   -3.8169   -7.9993   -4.9342  -14.2205    5.8116   -0.0000   29.6571
       10 N1     2pz       -0.0506   -0.3407    7.9929   16.4378   26.7034   29.8685  -52.3048    0.0000  -69.3730
       11 N1     2pz       -0.0111    0.2050  -11.6985  -24.4641   49.3509  -44.3733 -108.1708   -0.0000   50.4945
       12 N1     2pz        0.0023   -0.1205   14.4673   29.8873  -62.7268   50.3925   82.7535    0.0000  -50.5024
       13 N1     2pz        0.0045    0.0474  -12.3893  -23.3860   -5.2306  -31.7890   -5.8342   -0.0000   33.4288
       14 N1     2pz       -0.0008   -0.0090    5.3813    7.7631    0.3514    8.2845    1.7253    0.0000   -7.2452
       15 N1     3d0        0.0009   -0.0042    0.0006   -0.0018    0.0024    0.0036   -0.0115   -0.0000    0.0039
       16 N1     3d0        0.0020   -0.0068   -0.0240   -0.0591   -0.2116   -0.0770    0.4121   -0.0000    0.3046
       17 N1     3d0       -0.0043   -0.0116    0.3162    0.6635    0.9724    1.1587   -1.6793    0.0000   -2.7625
       18 N1     3d0        0.0074    0.0145   -0.1367   -0.2424   -5.8246   -0.4402   12.7472    0.0000    3.9364
       19 N1     3d2+      -0.0000    0.0000    0.0000   -0.0000   -0.0000   -0.0000    0.0000   -0.0204    0.0000
       20 N1     3d2+       0.0000   -0.0000   -0.0000    0.0000    0.0000    0.0000   -0.0000    0.3022    0.0000
       21 N1     3d2+      -0.0000    0.0000    0.0000   -0.0000   -0.0000   -0.0000    0.0000   -1.1403   -0.0000
       22 N1     3d2+       0.0000    0.0000   -0.0000    0.0000    0.0000    0.0000   -0.0000    3.0131    0.0000
       23 N1     4f0       -0.0007   -0.0011    0.0004    0.0014    0.0089    0.0008   -0.0229    0.0000   -0.0108
       24 N1     4f2+      -0.0000   -0.0000   -0.0000   -0.0000   -0.0000   -0.0000    0.0000    0.0004    0.0000

      Molecular orbitals for symmetry species 6: b2g

          Orbital            1         2         3         4         5         6         7    
          Energy            0.0000    0.0000    0.0000    0.0498    0.1171    0.1693    0.3005
          Occ. No.          0.0000    0.0000    0.0000    0.0000    0.0000    0.0000    0.0000

        1 X1     3d1+       0.0003   -0.0131    1.0106   -0.0000   -0.0000   -0.0000   -0.0000
        2 X1     3d1+      -0.0131    1.0123   -0.1352    0.0000    0.0000    0.0000    0.0000
        3 X1     3d1+       1.0018   -0.1329    0.0158   -0.0000   -0.0000   -0.0000   -0.0000
        4 N1     2px        0.0000    0.0000    0.0000    0.0474   -0.4553    0.6506   -0.4892
        5 N1     2px       -0.0000    0.0000    0.0000    0.0313    0.0390    0.0590    0.1002
        6 N1     2px       -0.0000   -0.0000   -0.0000   -1.0181   -1.6814   -1.4216   -4.1509
        7 N1     2px        0.0000    0.0000    0.0000    5.2126    7.3351    8.9660   19.6600
        8 N1     2px       -0.0000   -0.0000   -0.0000  -14.1052  -19.8288  -24.9358  -52.9625
        9 N1     2px        0.0000    0.0000    0.0000   25.5728   34.6522   45.8178   85.9576
       10 N1     2px       -0.0000   -0.0000   -0.0000  -31.4466  -40.9191  -49.2394  -72.3856
       11 N1     2px        0.0000    0.0000    0.0000   21.0879   20.1374   21.1144   25.2289
       12 N1     3d1+      -0.0000   -0.0000   -0.0000    0.0002   -0.0097    0.0101   -0.0096
       13 N1     3d1+       0.0000    0.0000    0.0000    0.0201    0.0012    0.0605    0.0460
       14 N1     3d1+      -0.0000   -0.0000   -0.0000   -0.0334   -0.0374   -0.0864   -0.1045
       15 N1     3d1+       0.0000    0.0000    0.0000    0.0366    0.0671    0.1173    0.1300
       16 N1     4f1+      -0.0000   -0.0000   -0.0000   -0.0020    0.0008   -0.0077   -0.0023
       17 N1     4f3+      -0.0000   -0.0000    0.0000   -0.0000   -0.0000   -0.0000   -0.0000

      Molecular orbitals for symmetry species 7: b3g

          Orbital            1         2         3         4         5         6         7    
          Energy            0.0000    0.0000    0.0000    0.0498    0.1171    0.1693    0.3005
          Occ. No.          0.0000    0.0000    0.0000    0.0000    0.0000    0.0000    0.0000

        1 X1     3d1-       0.0003   -0.0131    1.0106   -0.0000   -0.0000   -0.0000   -0.0000
        2 X1     3d1-      -0.0131    1.0123   -0.1352    0.0000    0.0000    0.0000    0.0000
        3 X1     3d1-       1.0018   -0.1329    0.0158   -0.0000   -0.0000   -0.0000   -0.0000
        4 N1     2py        0.0000    0.0000    0.0000    0.0474   -0.4553    0.6506   -0.4892
        5 N1     2py        0.0000    0.0000    0.0000    0.0313    0.0390    0.0590    0.1002
        6 N1     2py       -0.0000   -0.0000   -0.0000   -1.0181   -1.6814   -1.4216   -4.1509
        7 N1     2py        0.0000    0.0000    0.0000    5.2126    7.3351    8.9660   19.6600
        8 N1     2py       -0.0000   -0.0000   -0.0000  -14.1052  -19.8288  -24.9358  -52.9625
        9 N1     2py        0.0000    0.0000    0.0000   25.5728   34.6522   45.8178   85.9576
       10 N1     2py       -0.0000   -0.0000   -0.0000  -31.4466  -40.9191  -49.2394  -72.3856
       11 N1     2py        0.0000    0.0000    0.0000   21.0879   20.1374   21.1144   25.2289
       12 N1     3d1-      -0.0000   -0.0000   -0.0000    0.0002   -0.0097    0.0101   -0.0096
       13 N1     3d1-       0.0000    0.0000    0.0000    0.0201    0.0012    0.0605    0.0460
       14 N1     3d1-      -0.0000   -0.0000   -0.0000   -0.0334   -0.0374   -0.0864   -0.1045
       15 N1     3d1-       0.0000    0.0000    0.0000    0.0366    0.0671    0.1173    0.1300
       16 N1     4f3-      -0.0000   -0.0000    0.0000    0.0000    0.0000    0.0000    0.0000
       17 N1     4f1-      -0.0000   -0.0000   -0.0000   -0.0020    0.0008   -0.0077   -0.0023

      Molecular orbitals for symmetry species 8: au 

          Orbital            1    
          Energy            0.4304
          Occ. No.          0.0000

        1 N1     3d2-      -0.0204
        2 N1     3d2-       0.3022
        3 N1     3d2-      -1.1403
        4 N1     3d2-       3.0131
        5 N1     4f2-       0.0004
--


++    Molecular charges:
      ------------------

      Mulliken charges per centre and basis function type
      ---------------------------------------------------

                X1      N1    
      1s       0.0000  3.8154
      2px      0.0000  0.9631
      2pz      0.0000  1.1745
      2py      0.0000  0.9631
      3d2+     0.0000  0.0000
      3d1+     0.0000  0.0344
      3d0      0.0000  0.0085
      3d1-     0.0000  0.0344
      3d2-     0.0000  0.0000
      4f3+     0.0000  0.0000
      4f2+     0.0000  0.0000
      4f1+     0.0000  0.0025
      4f0      0.0000  0.0017
      4f1-     0.0000  0.0025
      4f2-     0.0000  0.0000
      4f3-     0.0000  0.0000
      Total    0.0000  7.0000

      N-E     -0.0000 -0.0000

      Total electronic charge=   14.000000

      Total            charge=   -0.000000
--


++    Molecular properties:
      ---------------------

      Charge (e):
                      =   -0.0000
      Dipole Moment (Debye):
      Origin of the operator (Ang)=    0.0000    0.0000    0.0000
                   X=  0.0000E+00               Y=  0.0000E+00               Z=  0.0000E+00           Total=  0.0000E+00
      Quadrupole Moment (Debye*Ang):
      Origin of the operator (Ang)=    0.0000    0.0000    0.0000
                  XX= -1.0385E+01              XY=  0.0000E+00              XZ=  0.0000E+00              YY= -1.0385E+01
                  YZ=  0.0000E+00              ZZ= -1.1641E+01
      In traceless form (Debye*Ang)
                  XX=  6.2841E-01              XY=  0.0000E+00              XZ=  0.0000E+00              YY=  6.2841E-01
                  YZ=  0.0000E+00              ZZ= -1.2568E+00
--


  Input file to MOLDEN was generated!

 ###############################################################################
 ###############################################################################
 ###                                                                         ###
 ###                                                                         ###
 ###    WARNING: RunFile label nBas                                          ###
 ###    was used       72 times                                              ###
 ###                                                                         ###
 ###                                                                         ###
 ###############################################################################
 ###############################################################################
--- Stop Module: scf at Tue Jul  6 10:51:01 2021 /rc=_RC_ALL_IS_WELL_ ---
*** files: bad_diffuse.scf.molden bad_diffuse.ScfOrb bad_diffuse.scf.h5 xmldump
    saved to directory /home/gayverjr/opencap_examples

*** symbolic link created: INPORB -> bad_diffuse.ScfOrb
--- Start Module: rasscf at Tue Jul  6 10:51:01 2021 ---

()()()()()()()()()()()()()()()()()()()()()()()()()()()()()()()()()()()()()()()()()()()()()()()()()()

                                              &RASSCF

                                   only a single process is used
                       available to each process: 20 GB of memory, 16 threads
                                             pid: 28114
()()()()()()()()()()()()()()()()()()()()()()()()()()()()()()()()()()()()()()()()()()()()()()()()()()


      Header of the ONEINT file:
      --------------------------
      
      Integrals generated by Gateway/Seward, Tue Jul  6 10:50:56 2021


      OrdInt status: non-squared


      Cartesian coordinates in Angstrom:
      -----------------------------------------------------
      No.  Label        X            Y            Z        
      -----------------------------------------------------
       1   X1         0.00000000   0.00000000   0.00000000
       2   N1         0.00000000   0.00000000   0.54875677
       3   N1         0.00000000   0.00000000  -0.54875677
      -----------------------------------------------------
      Nuclear repulsion energy =   23.62584378

++    Wave function specifications:
      -----------------------------

      Number of closed shell electrons          10
      Number of electrons in active shells       5
      Max number of holes in RAS1 space          0
      Max nr of electrons in RAS3 space          0
      Number of inactive orbitals                5
      Number of active orbitals                 13
      Number of secondary orbitals             111
      Spin quantum number                      0.5
      State symmetry                             6
--

++    Orbital specifications:
      -----------------------

      Symmetry species                           1   2   3   4   5   6   7   8
                                                ag b3u b2u b1g b1u b2g b3g  au
      Frozen orbitals                            0   0   0   0   0   0   0   0
      Inactive orbitals                          3   0   0   0   2   0   0   0
      Active orbitals                            0   1   1   0   0   6   5   0
      RAS1 orbitals                              0   0   0   0   0   0   0   0
      RAS2 orbitals                              0   1   1   0   0   6   5   0
      RAS3 orbitals                              0   0   0   0   0   0   0   0
      Secondary orbitals                        27  13  13   8  22  11  12   5
      Deleted orbitals                           0   0   0   0   0   0   0   0
      Number of basis functions                 30  14  14   8  24  17  17   5
--

++    CI expansion specifications:
      ----------------------------

      Number of CSFs                          3701
      Number of determinants                  6156
      Number of root(s) required                 3
      Root chosen for geometry opt.              3
      CI roots used                              1     2     3
      weights                                0.333 0.333 0.333
      highest root included in the CI            3
      max. size of the explicit Hamiltonian    200
--

++    Optimization specifications:
      ----------------------------

      RASSCF algorithm: Conventional
      Maximum number of macro iterations       200
      Maximum number of SX iterations          100
      Threshold for RASSCF energy            0.100E-07
      Threshold for max MO rotation          0.100E+00
      Threshold for max BLB element          0.100E-03
      Level shift parameter                  0.500E+00
      Make Quasi-Newton update
--

      Orbitals from runfile: scf orbitals
      The MO-coefficients are taken from scf orbitals on runfile

      Total molecular charge   -1.00

      ************************************************************************************************************************
      *                                                                                                                      *
      *                                            Wave function control section                                             *
      *                                                                                                                      *
      ************************************************************************************************************************


                                         RASSCF iterations: Energy and convergence statistics
                                         ----------------------------------------------------

      Iter CI   SX   CI       RASSCF       Energy    max ROT     max BLB   max BLB  Level Ln srch  Step   QN   Walltime
          iter iter root      energy       change     param      element    value   shift minimum  type update hh:mm:ss
 Nr of preliminary CI iterations:   3
 ###############################################################################
 ###############################################################################
 ###                                                                         ###
 ###                                                                         ###
 ###    WARNING: Problems in orbital optimization.                           ###
 ###                                                                         ###
 ###                                                                         ###
 ###############################################################################
 ###############################################################################
  Warning: In symmetry  7, orbital p=   1 has diagonal density matrix element D(p,p) close to zero. D(p,p)=  0.282353D-31
  Warning: In symmetry  7, orbital p=   2 has diagonal density matrix element D(p,p) close to zero. D(p,p)=  0.672642D-32
  Warning: In symmetry  7, orbital p=   3 has diagonal density matrix element D(p,p) close to zero. D(p,p)=  0.586885D-28
 ###############################################################################
 ###############################################################################
 ###                                                                         ###
 ###                                                                         ###
 ###    WARNING: Large orbital rotation.                                     ###
 ###                                                                         ###
 ###                                                                         ###
 ###############################################################################
 ###############################################################################
      Molecular orbital   4 of symmetry 7 MO space 2  weight is    0.338070
 ###############################################################################
 ###############################################################################
 ###                                                                         ###
 ###                                                                         ###
 ###    WARNING: Large orbital rotation.                                     ###
 ###                                                                         ###
 ###                                                                         ###
 ###############################################################################
 ###############################################################################
      Molecular orbital   6 of symmetry 7 MO space 3  weight is    0.462279
        1   1    6    0  -109.00430789    0.00E+00   0.63E+00*   6   7 6  0.13E-01*  0.50   0.00    SX    NO    0:00:00
 ###############################################################################
 ###############################################################################
 ###                                                                         ###
 ###                                                                         ###
 ###    WARNING: Problems in orbital optimization.                           ###
 ###                                                                         ###
 ###                                                                         ###
 ###############################################################################
 ###############################################################################
  Warning: In symmetry  7, orbital p=   1 has diagonal density matrix element D(p,p) close to zero. D(p,p)=  0.161985D-31
  Warning: In symmetry  7, orbital p=   2 has diagonal density matrix element D(p,p) close to zero. D(p,p)=  0.191787D-31
  Warning: In symmetry  7, orbital p=   3 has diagonal density matrix element D(p,p) close to zero. D(p,p)=  0.302254D-29
        2   4   18    0  -109.05025492   -0.46E-01*  0.38E+00*   5   6 7 -0.22E-01*  0.50   0.00    SX    NO    0:00:00
 ###############################################################################
 ###############################################################################
 ###                                                                         ###
 ###                                                                         ###
 ###    WARNING: Problems in orbital optimization.                           ###
 ###                                                                         ###
 ###                                                                         ###
 ###############################################################################
 ###############################################################################
  Warning: In symmetry  7, orbital p=   1 has diagonal density matrix element D(p,p) close to zero. D(p,p)=  0.304256D-31
  Warning: In symmetry  7, orbital p=   2 has diagonal density matrix element D(p,p) close to zero. D(p,p)=  0.224388D-31
  Warning: In symmetry  7, orbital p=   3 has diagonal density matrix element D(p,p) close to zero. D(p,p)=  0.827849D-28
        3   4   20    0  -109.07555373   -0.25E-01* -0.47E-01    1  10 3  0.16E-01*  0.50   0.00    SX    NO    0:00:00
 ###############################################################################
 ###############################################################################
 ###                                                                         ###
 ###                                                                         ###
 ###    WARNING: Problems in orbital optimization.                           ###
 ###                                                                         ###
 ###                                                                         ###
 ###############################################################################
 ###############################################################################
  Warning: In symmetry  7, orbital p=   1 has diagonal density matrix element D(p,p) close to zero. D(p,p)=  0.101836D-32
  Warning: In symmetry  7, orbital p=   2 has diagonal density matrix element D(p,p) close to zero. D(p,p)=  0.522180D-32
  Warning: In symmetry  7, orbital p=   3 has diagonal density matrix element D(p,p) close to zero. D(p,p)=  0.113980D-27
        4   3   19    0  -109.07687948   -0.13E-02* -0.32E-01    1  10 3  0.50E-02*  0.50   0.00    SX    NO    0:00:00
 ###############################################################################
 ###############################################################################
 ###                                                                         ###
 ###                                                                         ###
 ###    WARNING: Problems in orbital optimization.                           ###
 ###                                                                         ###
 ###                                                                         ###
 ###############################################################################
 ###############################################################################
  Warning: In symmetry  7, orbital p=   1 has diagonal density matrix element D(p,p) close to zero. D(p,p)=  0.582241D-34
  Warning: In symmetry  7, orbital p=   2 has diagonal density matrix element D(p,p) close to zero. D(p,p)=  0.452620D-32
  Warning: In symmetry  7, orbital p=   3 has diagonal density matrix element D(p,p) close to zero. D(p,p)=  0.123845D-27
        5   3   20    0  -109.07707827   -0.20E-03* -0.22E-01    1   8 3  0.21E-02*  0.50   1.75    LS   YES    0:00:00
 ###############################################################################
 ###############################################################################
 ###                                                                         ###
 ###                                                                         ###
 ###    WARNING: Problems in orbital optimization.                           ###
 ###                                                                         ###
 ###                                                                         ###
 ###############################################################################
 ###############################################################################
  Warning: In symmetry  7, orbital p=   1 has diagonal density matrix element D(p,p) close to zero. D(p,p)=  0.289725D-34
  Warning: In symmetry  7, orbital p=   2 has diagonal density matrix element D(p,p) close to zero. D(p,p)=  0.470579D-32
  Warning: In symmetry  7, orbital p=   3 has diagonal density matrix element D(p,p) close to zero. D(p,p)=  0.130937D-27
        6   3   20    0  -109.07712727   -0.49E-04* -0.39E-01    3  11 1  0.99E-03*  0.50   1.14    QN   YES    0:00:00
 ###############################################################################
 ###############################################################################
 ###                                                                         ###
 ###                                                                         ###
 ###    WARNING: Problems in orbital optimization.                           ###
 ###                                                                         ###
 ###                                                                         ###
 ###############################################################################
 ###############################################################################
  Warning: In symmetry  7, orbital p=   1 has diagonal density matrix element D(p,p) close to zero. D(p,p)=  0.169667D-34
  Warning: In symmetry  7, orbital p=   2 has diagonal density matrix element D(p,p) close to zero. D(p,p)=  0.469595D-32
  Warning: In symmetry  7, orbital p=   3 has diagonal density matrix element D(p,p) close to zero. D(p,p)=  0.130904D-27
        7   3   20    0  -109.07716313   -0.36E-04* -0.23E+00*   1  10 3 -0.65E-03*  0.50   2.50    QN   YES    0:00:00
 ###############################################################################
 ###############################################################################
 ###                                                                         ###
 ###                                                                         ###
 ###    WARNING: Problems in orbital optimization.                           ###
 ###                                                                         ###
 ###                                                                         ###
 ###############################################################################
 ###############################################################################
  Warning: In symmetry  7, orbital p=   1 has diagonal density matrix element D(p,p) close to zero. D(p,p)=  0.186948D-34
  Warning: In symmetry  7, orbital p=   2 has diagonal density matrix element D(p,p) close to zero. D(p,p)=  0.463809D-32
  Warning: In symmetry  7, orbital p=   3 has diagonal density matrix element D(p,p) close to zero. D(p,p)=  0.129096D-27
        8   4   22    0  -109.07733044   -0.17E-03* -0.18E+00*   1   6 3 -0.25E-02*  0.50   1.47    QN   YES    0:00:00
 ###############################################################################
 ###############################################################################
 ###                                                                         ###
 ###                                                                         ###
 ###    WARNING: Problems in orbital optimization.                           ###
 ###                                                                         ###
 ###                                                                         ###
 ###############################################################################
 ###############################################################################
  Warning: In symmetry  7, orbital p=   1 has diagonal density matrix element D(p,p) close to zero. D(p,p)=  0.327353D-34
  Warning: In symmetry  7, orbital p=   2 has diagonal density matrix element D(p,p) close to zero. D(p,p)=  0.461037D-32
  Warning: In symmetry  7, orbital p=   3 has diagonal density matrix element D(p,p) close to zero. D(p,p)=  0.127284D-27
        9   3   23    0  -109.07741158   -0.81E-04* -0.10E+00*   3  15 1  0.39E-02*  0.50   1.37    QN   YES    0:00:00
 ###############################################################################
 ###############################################################################
 ###                                                                         ###
 ###                                                                         ###
 ###    WARNING: Problems in orbital optimization.                           ###
 ###                                                                         ###
 ###                                                                         ###
 ###############################################################################
 ###############################################################################
  Warning: In symmetry  7, orbital p=   1 has diagonal density matrix element D(p,p) close to zero. D(p,p)=  0.636995D-35
  Warning: In symmetry  7, orbital p=   2 has diagonal density matrix element D(p,p) close to zero. D(p,p)=  0.452428D-32
  Warning: In symmetry  7, orbital p=   3 has diagonal density matrix element D(p,p) close to zero. D(p,p)=  0.125617D-27
       10   4   23    0  -109.07748846   -0.77E-04*  0.16E+00*   3  15 1  0.41E-02*  0.50   2.50    QN   YES    0:00:00
 ###############################################################################
 ###############################################################################
 ###                                                                         ###
 ###                                                                         ###
 ###    WARNING: Problems in orbital optimization.                           ###
 ###                                                                         ###
 ###                                                                         ###
 ###############################################################################
 ###############################################################################
  Warning: In symmetry  7, orbital p=   1 has diagonal density matrix element D(p,p) close to zero. D(p,p)=  0.123399D-34
  Warning: In symmetry  7, orbital p=   2 has diagonal density matrix element D(p,p) close to zero. D(p,p)=  0.447755D-32
  Warning: In symmetry  7, orbital p=   3 has diagonal density matrix element D(p,p) close to zero. D(p,p)=  0.123754D-27
       11   4   22    0  -109.07765355   -0.17E-03*  0.14E+00*   3  15 1  0.36E-02*  0.50   2.36    QN   YES    0:00:00
 ###############################################################################
 ###############################################################################
 ###                                                                         ###
 ###                                                                         ###
 ###    WARNING: Problems in orbital optimization.                           ###
 ###                                                                         ###
 ###                                                                         ###
 ###############################################################################
 ###############################################################################
  Warning: In symmetry  7, orbital p=   1 has diagonal density matrix element D(p,p) close to zero. D(p,p)=  0.164716D-34
  Warning: In symmetry  7, orbital p=   2 has diagonal density matrix element D(p,p) close to zero. D(p,p)=  0.446211D-32
  Warning: In symmetry  7, orbital p=   3 has diagonal density matrix element D(p,p) close to zero. D(p,p)=  0.123213D-27
       12   4   22    0  -109.07780902   -0.16E-03*  0.88E-01    3  11 1 -0.24E-02*  0.50   2.02    QN   YES    0:00:00
 ###############################################################################
 ###############################################################################
 ###                                                                         ###
 ###                                                                         ###
 ###    WARNING: Problems in orbital optimization.                           ###
 ###                                                                         ###
 ###                                                                         ###
 ###############################################################################
 ###############################################################################
  Warning: In symmetry  7, orbital p=   1 has diagonal density matrix element D(p,p) close to zero. D(p,p)=  0.338949D-34
  Warning: In symmetry  7, orbital p=   2 has diagonal density matrix element D(p,p) close to zero. D(p,p)=  0.450602D-32
  Warning: In symmetry  7, orbital p=   3 has diagonal density matrix element D(p,p) close to zero. D(p,p)=  0.124139D-27
       13   3   23    0  -109.07792399   -0.11E-03* -0.56E-01    3  11 1 -0.98E-03*  0.50   1.78    QN   YES    0:00:00
 ###############################################################################
 ###############################################################################
 ###                                                                         ###
 ###                                                                         ###
 ###    WARNING: Problems in orbital optimization.                           ###
 ###                                                                         ###
 ###                                                                         ###
 ###############################################################################
 ###############################################################################
  Warning: In symmetry  7, orbital p=   1 has diagonal density matrix element D(p,p) close to zero. D(p,p)=  0.491898D-34
  Warning: In symmetry  7, orbital p=   2 has diagonal density matrix element D(p,p) close to zero. D(p,p)=  0.454204D-32
  Warning: In symmetry  7, orbital p=   3 has diagonal density matrix element D(p,p) close to zero. D(p,p)=  0.126132D-27
       14   3   23    0  -109.07800887   -0.85E-04*  0.62E-01    1   8 3  0.16E-02*  0.50   2.01    QN   YES    0:00:00
 ###############################################################################
 ###############################################################################
 ###                                                                         ###
 ###                                                                         ###
 ###    WARNING: Problems in orbital optimization.                           ###
 ###                                                                         ###
 ###                                                                         ###
 ###############################################################################
 ###############################################################################
  Warning: In symmetry  7, orbital p=   1 has diagonal density matrix element D(p,p) close to zero. D(p,p)=  0.164836D-34
  Warning: In symmetry  7, orbital p=   2 has diagonal density matrix element D(p,p) close to zero. D(p,p)=  0.462421D-32
  Warning: In symmetry  7, orbital p=   3 has diagonal density matrix element D(p,p) close to zero. D(p,p)=  0.129093D-27
       15   4   23    0  -109.07810405   -0.95E-04*  0.98E-01    3  15 1 -0.25E-02*  0.50   2.31    QN   YES    0:00:00
 ###############################################################################
 ###############################################################################
 ###                                                                         ###
 ###                                                                         ###
 ###    WARNING: Problems in orbital optimization.                           ###
 ###                                                                         ###
 ###                                                                         ###
 ###############################################################################
 ###############################################################################
  Warning: In symmetry  7, orbital p=   1 has diagonal density matrix element D(p,p) close to zero. D(p,p)=  0.129272D-34
  Warning: In symmetry  7, orbital p=   2 has diagonal density matrix element D(p,p) close to zero. D(p,p)=  0.471997D-32
  Warning: In symmetry  7, orbital p=   3 has diagonal density matrix element D(p,p) close to zero. D(p,p)=  0.131971D-27
       16   4   23    0  -109.07822623   -0.12E-03*  0.96E-01    3  15 1 -0.35E-02*  0.50   2.10    QN   YES    0:00:00
 ###############################################################################
 ###############################################################################
 ###                                                                         ###
 ###                                                                         ###
 ###    WARNING: Problems in orbital optimization.                           ###
 ###                                                                         ###
 ###                                                                         ###
 ###############################################################################
 ###############################################################################
  Warning: In symmetry  7, orbital p=   1 has diagonal density matrix element D(p,p) close to zero. D(p,p)=  0.847067D-35
  Warning: In symmetry  7, orbital p=   2 has diagonal density matrix element D(p,p) close to zero. D(p,p)=  0.478087D-32
  Warning: In symmetry  7, orbital p=   3 has diagonal density matrix element D(p,p) close to zero. D(p,p)=  0.134121D-27
       17   4   23    0  -109.07834777   -0.12E-03*  0.86E-01    3  11 1  0.37E-02*  0.50   2.05    QN   YES    0:00:00
 ###############################################################################
 ###############################################################################
 ###                                                                         ###
 ###                                                                         ###
 ###    WARNING: Problems in orbital optimization.                           ###
 ###                                                                         ###
 ###                                                                         ###
 ###############################################################################
 ###############################################################################
  Warning: In symmetry  7, orbital p=   1 has diagonal density matrix element D(p,p) close to zero. D(p,p)=  0.995715D-35
  Warning: In symmetry  7, orbital p=   2 has diagonal density matrix element D(p,p) close to zero. D(p,p)=  0.479190D-32
  Warning: In symmetry  7, orbital p=   3 has diagonal density matrix element D(p,p) close to zero. D(p,p)=  0.134841D-27
       18   4   23    0  -109.07845551   -0.11E-03*  0.65E-01    3  11 1  0.32E-02*  0.50   2.06    LS   YES    0:00:00
 ###############################################################################
 ###############################################################################
 ###                                                                         ###
 ###                                                                         ###
 ###    WARNING: Problems in orbital optimization.                           ###
 ###                                                                         ###
 ###                                                                         ###
 ###############################################################################
 ###############################################################################
  Warning: In symmetry  7, orbital p=   1 has diagonal density matrix element D(p,p) close to zero. D(p,p)=  0.107519D-34
  Warning: In symmetry  7, orbital p=   2 has diagonal density matrix element D(p,p) close to zero. D(p,p)=  0.480470D-32
  Warning: In symmetry  7, orbital p=   3 has diagonal density matrix element D(p,p) close to zero. D(p,p)=  0.135382D-27
       19   4   23    0  -109.07849247   -0.37E-04*  0.21E-01    3  11 1  0.28E-02*  0.50   1.43    QN   YES    0:00:00
 ###############################################################################
 ###############################################################################
 ###                                                                         ###
 ###                                                                         ###
 ###    WARNING: Problems in orbital optimization.                           ###
 ###                                                                         ###
 ###                                                                         ###
 ###############################################################################
 ###############################################################################
  Warning: In symmetry  7, orbital p=   1 has diagonal density matrix element D(p,p) close to zero. D(p,p)=  0.823978D-35
  Warning: In symmetry  7, orbital p=   2 has diagonal density matrix element D(p,p) close to zero. D(p,p)=  0.476440D-32
  Warning: In symmetry  7, orbital p=   3 has diagonal density matrix element D(p,p) close to zero. D(p,p)=  0.133666D-27
       20   4   21    0  -109.07854431   -0.52E-04* -0.22E-01    3  11 1  0.14E-02*  0.50   2.14    LS   YES    0:00:00
 ###############################################################################
 ###############################################################################
 ###                                                                         ###
 ###                                                                         ###
 ###    WARNING: Problems in orbital optimization.                           ###
 ###                                                                         ###
 ###                                                                         ###
 ###############################################################################
 ###############################################################################
  Warning: In symmetry  7, orbital p=   1 has diagonal density matrix element D(p,p) close to zero. D(p,p)=  0.650021D-35
  Warning: In symmetry  7, orbital p=   2 has diagonal density matrix element D(p,p) close to zero. D(p,p)=  0.471901D-32
  Warning: In symmetry  7, orbital p=   3 has diagonal density matrix element D(p,p) close to zero. D(p,p)=  0.131798D-27
       21   4   21    0  -109.07856526   -0.21E-04*  0.26E-01    1   8 3 -0.79E-03*  0.50   1.12    QN   YES    0:00:00
 ###############################################################################
 ###############################################################################
 ###                                                                         ###
 ###                                                                         ###
 ###    WARNING: Problems in orbital optimization.                           ###
 ###                                                                         ###
 ###                                                                         ###
 ###############################################################################
 ###############################################################################
  Warning: In symmetry  7, orbital p=   1 has diagonal density matrix element D(p,p) close to zero. D(p,p)=  0.622202D-35
  Warning: In symmetry  7, orbital p=   2 has diagonal density matrix element D(p,p) close to zero. D(p,p)=  0.465971D-32
  Warning: In symmetry  7, orbital p=   3 has diagonal density matrix element D(p,p) close to zero. D(p,p)=  0.130513D-27
       22   4   21    0  -109.07858464   -0.19E-04* -0.74E-01    3  15 1  0.74E-03*  0.50   2.50    QN   YES    0:00:00
 ###############################################################################
 ###############################################################################
 ###                                                                         ###
 ###                                                                         ###
 ###    WARNING: Problems in orbital optimization.                           ###
 ###                                                                         ###
 ###                                                                         ###
 ###############################################################################
 ###############################################################################
  Warning: In symmetry  7, orbital p=   1 has diagonal density matrix element D(p,p) close to zero. D(p,p)=  0.149864D-34
  Warning: In symmetry  7, orbital p=   2 has diagonal density matrix element D(p,p) close to zero. D(p,p)=  0.461785D-32
[...]
AIVX     5  Mu5.0013  In5.002 Se1.018               2.34872003     -0.07057783      0.03000997     -0.00211804
AIVX     5  Mu5.0013  In5.002 Se1.022               3.45643517     -0.09075453      0.02603132     -0.00236246
AIVX     5  Mu5.0016  In1.003 Se5.010               2.14356226     -0.05762235      0.02729914     -0.00157304
AIVX     5  Mu5.0016  In1.002 Se5.012               3.29506334     -0.13235553      0.04003192     -0.00529845
AIVX     5  Mu5.0016  In1.003 Se5.012               2.45501006      0.11807873     -0.04842603     -0.00571808
AIVX     5  Mu5.0016  In1.003 Se5.014               2.83606584     -0.08602635      0.03033633     -0.00260972
AIVX     5  Mu5.0016  In1.002 Se5.015               3.94415790      0.10283555     -0.02604015     -0.00267785
AIVX     8  Mu8.0015  In5.002 Se4.005               2.34738603     -0.07028511      0.02990316     -0.00210175
AIVX     8  Mu8.0015  In5.002 Se4.006               3.45510116     -0.09043140      0.02594904     -0.00234661
--

   (Skipping property calculation,
    use PROP keyword to activate)
--

++ CASPT2 computation for group   3

********************************************************************************
 Multi-State initialization phase begins for group   3
--------------------------------------------------------------------------------
********************************************************************************
 Compute H0 matrices for state    3
--------------------------------------------------------------------------------
--------------------------------------------------------------------------------
 H0 matrices have been computed.

********************************************************************************
  CASPT2 EQUATION SOLUTION
--------------------------------------------------------------------------------

  Total nr of CASPT2 parameters:
   Before reduction:      245395
   After  reduction:      113588

 The contributions to the second order correlation energy in atomic units.
-----------------------------------------------------------------------------------------------------------------------------
  IT.      VJTU        VJTI        ATVX        AIVX        VJAI        BVAT        BJAT        BJAI        TOTAL       RNORM  
-----------------------------------------------------------------------------------------------------------------------------
   1     0.000000   -0.008268   -0.003359   -0.080566   -0.014815   -0.030825   -0.065729   -0.068423   -0.271986    0.019773
   2     0.000000   -0.008520   -0.003390   -0.081174   -0.014951   -0.030841   -0.065742   -0.068473   -0.273091    0.005377
   3     0.000000   -0.008520   -0.003392   -0.081229   -0.014937   -0.030841   -0.065749   -0.068472   -0.273140    0.001617
   4     0.000000   -0.008527   -0.003389   -0.081191   -0.014923   -0.030840   -0.065744   -0.068472   -0.273086    0.000482
   5     0.000000   -0.008529   -0.003389   -0.081187   -0.014924   -0.030840   -0.065745   -0.068472   -0.273087    0.000119
   6     0.000000   -0.008529   -0.003389   -0.081189   -0.014924   -0.030840   -0.065746   -0.068473   -0.273091    0.000029
   7     0.000000   -0.008529   -0.003389   -0.081189   -0.014924   -0.030840   -0.065746   -0.068473   -0.273091    0.000008
   8     0.000000   -0.008529   -0.003389   -0.081189   -0.014924   -0.030840   -0.065746   -0.068473   -0.273091    0.000002
-----------------------------------------------------------------------------------------------------------------------------

  FINAL CASPT2 RESULT:

      Reference energy:        -109.0790264381
      E2 (Non-variational):      -0.2730911305
      Shift correction:          -0.0002164854
      E2 (Variational):          -0.2733076159
      Total energy:            -109.3523340539
      Residual norm:              0.0000006720
      Reference weight:           0.93599

      Contributions to the CASPT2 correlation energy
      Active & Virtual Only:         -0.0342297114
      One Inactive Excited:          -0.1469348332
      Two Inactive Excited:          -0.0919265859


++ Denominators, etc.
--------------------------------------------------------------------------------------------------------------
 Report on small energy denominators, large coefficients, and large energy contributions.
CASE  SYMM ACTIVE-MIX  NON-ACTIVE INDICES          DENOMINATOR     RHS VALUE       COEFFICIENT     CONTRIBUTION
VJTIP    1  Mu1.0019  In1.003 In1.003               1.63411574      0.04453025     -0.02859516     -0.00127335
VJTIP    1  Mu1.0019  In5.002 In5.002               1.92873339      0.10038133     -0.05230611     -0.00525056
ATVX     6  Mu6.0001  Se6.007                      -0.04162008     -0.00000000     -0.00000000      0.00000000
ATVX     6  Mu6.0001  Se6.008                       0.04787608      0.00000000     -0.00000000     -0.00000000
ATVX     6  Mu6.0001  Se6.009                       0.20649735      0.00000000     -0.00000000     -0.00000000
AIVX     5  Mu5.0016  In5.002 Se1.015               1.91100501     -0.06363351      0.03334363     -0.00212177
AIVX     5  Mu5.0013  In5.002 Se1.018               2.34872003     -0.07057783      0.03000997     -0.00211804
AIVX     5  Mu5.0013  In5.002 Se1.022               3.45643517     -0.09075453      0.02603132     -0.00236246
AIVX     5  Mu5.0016  In1.003 Se5.010               2.14356226      0.05762235     -0.02729914     -0.00157304
AIVX     5  Mu5.0016  In1.002 Se5.012               3.29506334      0.13235553     -0.04003192     -0.00529845
AIVX     5  Mu5.0016  In1.003 Se5.012               2.45501006     -0.11807873      0.04842603     -0.00571808
AIVX     5  Mu5.0016  In1.003 Se5.014               2.83606584      0.08602635     -0.03033633     -0.00260972
AIVX     5  Mu5.0016  In1.002 Se5.015               3.94415790     -0.10283555      0.02604015     -0.00267785
AIVX     8  Mu8.0015  In5.002 Se4.005               2.34738603     -0.07028511      0.02990316     -0.00210175
AIVX     8  Mu8.0015  In5.002 Se4.006               3.45510116     -0.09043140      0.02594904     -0.00234661
--

   (Skipping property calculation,
    use PROP keyword to activate)
--

  Total CASPT2 energies:
::    CASPT2 Root  1     Total energy:   -109.35233403
::    CASPT2 Root  2     Total energy:   -109.35233405
::    CASPT2 Root  3     Total energy:   -109.35233405

++ Multi-State CASPT2 section:
********************************************************************************
  MULTI-STATE CASPT2 SECTION
--------------------------------------------------------------------------------

  Output diagonal energies have been shifted. Add   -109.00000000000000     

  Effective Hamiltonian matrix (Symmetric):

                1               2               3
   1        -0.35233403
   2        -0.00000000     -0.35233405
   3         0.00000000      0.00000000     -0.35233405

       Total MS-CASPT2 energies:
::    MS-CASPT2 Root  1     Total energy:   -109.35233405
::    MS-CASPT2 Root  2     Total energy:   -109.35233405
::    MS-CASPT2 Root  3     Total energy:   -109.35233403

       Eigenvectors:
            0.00090800      0.00001838      0.99999959
            0.99732379      0.07310563     -0.00090692
           -0.07310562      0.99732420      0.00004805

--

  THE ORIGINAL CI ARRAYS ARE NOW MIXED AS LINEAR
  COMBINATIONS, GIVEN BY THE EIGENVECTORS.
  A NEW JOBIPH FILE NAMED 'JOBMIX' IS PREPARED.
********************************************************************************

++ Mixed CI coefficients:
  The CI coefficients for the MIXED state nr.   1
--------------------------------------------------------------------------------
 CI COEFFICIENTS LARGER THAN  0.50D-01
  Occupation of active orbitals, and spin coupling
  of open shells. (u,d: Spin up or down).
  SGUGA info is (Midvert:IsyUp:UpperWalk/LowerWalk)
        Conf  SGUGA info        Occupation           Coefficient         Weight
           1  ( 1:1:   1/   1)   2 2 u00000 00000       0.329884       0.108823
           2  ( 1:1:   1/   2)   2 2 0u0000 00000       0.848789       0.720442
           7  ( 1:1:   1/   7)   2 2 00u000 00000      -0.328653       0.108013
         684  ( 4:1:  26/   3)   2 0 0u0000 00002       0.118733       0.014097
         685  ( 4:1:   1/   4)   0 2 0u0002 00000       0.118745       0.014100
        1935  ( 4:4:   9/   3)   u d 0u000d 0000u       0.050939       0.002595
        1936  ( 4:4:  10/   3)   u d 0u000u 0000d       0.088230       0.007784
        2586  ( 6:4:   5/   2)   u u 0u000d 0000d       0.069840       0.004878

  The CI coefficients for the MIXED state nr.   2
--------------------------------------------------------------------------------
 CI COEFFICIENTS LARGER THAN  0.50D-01
  Occupation of active orbitals, and spin coupling
  of open shells. (u,d: Spin up or down).
  SGUGA info is (Midvert:IsyUp:UpperWalk/LowerWalk)
        Conf  SGUGA info        Occupation           Coefficient         Weight
           1  ( 1:1:   1/   1)   2 2 u00000 00000       0.600195       0.360234
           2  ( 1:1:   1/   2)   2 2 0u0000 00000      -0.465656       0.216835
           7  ( 1:1:   1/   7)   2 2 00u000 00000      -0.600174       0.360209
         632  ( 4:1:  26/   1)   2 0 u00000 00002       0.083958       0.007049
         633  ( 4:1:   1/   2)   0 2 u00002 00000       0.083967       0.007050
         684  ( 4:1:  26/   3)   2 0 0u0000 00002      -0.065138       0.004243
         685  ( 4:1:   1/   4)   0 2 0u0002 00000      -0.065145       0.004244
         788  ( 4:1:  26/   7)   2 0 00u000 00002      -0.083955       0.007049
         789  ( 4:1:   1/   8)   0 2 00u002 00000      -0.083964       0.007050
        1916  ( 4:4:  10/   1)   u d u0000u 0000d       0.062389       0.003892
        1956  ( 4:4:  10/   5)   u d 00u00u 0000d      -0.062387       0.003892

  The CI coefficients for the MIXED state nr.   3
--------------------------------------------------------------------------------
 CI COEFFICIENTS LARGER THAN  0.50D-01
  Occupation of active orbitals, and spin coupling
  of open shells. (u,d: Spin up or down).
  SGUGA info is (Midvert:IsyUp:UpperWalk/LowerWalk)
        Conf  SGUGA info        Occupation           Coefficient         Weight
           1  ( 1:1:   1/   1)   2 2 u00000 00000       0.684267       0.468221
           7  ( 1:1:   1/   7)   2 2 00u000 00000       0.684877       0.469056
         632  ( 4:1:  26/   1)   2 0 u00000 00002       0.095719       0.009162
         633  ( 4:1:   1/   2)   0 2 u00002 00000       0.095728       0.009164
         788  ( 4:1:  26/   7)   2 0 00u000 00002       0.095804       0.009178
         789  ( 4:1:   1/   8)   0 2 00u002 00000       0.095814       0.009180
        1916  ( 4:4:  10/   1)   u d u0000u 0000d       0.071128       0.005059
        1956  ( 4:4:  10/   5)   u d 00u00u 0000d       0.071191       0.005068
        2581  ( 6:4:   5/   1)   u u u0000d 0000d       0.056303       0.003170
        2591  ( 6:4:   5/   3)   u u 00u00d 0000d       0.056353       0.003176

--

--- Stop Module: caspt2 at Tue Jul  6 10:51:38 2021 /rc=_RC_ALL_IS_WELL_ ---
*** files: xmldump
    saved to directory /home/gayverjr/opencap_examples
--- Module caspt2 spent 13 seconds ---

*** symbolic link created: INPORB -> bad_diffuse.RasOrb
--- Start Module: rassi at Tue Jul  6 10:51:38 2021 ---

()()()()()()()()()()()()()()()()()()()()()()()()()()()()()()()()()()()()()()()()()()()()()()()()()()

                                               &RASSI

                                   only a single process is used
                       available to each process: 20 GB of memory, 16 threads
                                              pid: 755
()()()()()()()()()()()()()()()()()()()()()()()()()()()()()()()()()()()()()()()()()()()()()()()()()()


      ********************************************************************************
      *                                                                              *
      *                             General data section                             *
      *                                                                              *
      ********************************************************************************

   Specific data for JOBIPH file JOBIPH                                                                                                                          
   -------------------------------------

   Header from SEWARD:
                                                                               
        Integrals generated by Gateway/Seward, Tue Jul  6 10:50:56 2021        

   CASSCF title (first line only):
       (No title given)                                                        

   STATE IRREP:                            6
   SPIN MULTIPLICITY:                      2
   ACTIVE ELECTRONS:                       5
   MAX RAS1 HOLES:                         0
   MAX RAS3 ELECTRONS:                     0
   NR OF CONFIG:                        3701

  Info: creating TDMFILE
        estimated file size                   178 kB
        TDMs in AO format


   The following data are common to all the states:
   ------------------------------------------------
   (note: frozen counts as inactive, deleted as secondary)

      Nr of irreps: 8

                 Total     No./Irrep 
      Irrep                  1   2   3   4   5   6   7   8
                            ag b3u b2u b1g b1u b2g b3g  au

      INACTIVE       5       3   0   0   0   2   0   0   0
      ACTIVE        13       0   1   1   0   0   6   5   0
      SECONDARY    111      27  13  13   8  22  11  12   5
      BASIS        129      30  14  14   8  24  17  17   5

      RAS1           0       0   0   0   0   0   0   0   0
      RAS2          13       0   1   1   0   0   6   5   0
      RAS3           0       0   0   0   0   0   0   0   0

        MATRIX ELEMENTS WILL BE COMPUTED FOR THE FOLLOWING ONE-ELECTRON OPERATORS, UNLESS ZERO BY SYMMETRY.
   (Herm=Hermitian, Anti=Antihermitian, Sing=Singlet operator, Trip=Triplet operator)
     MLTPL  0   1 (HERMSING)     MLTPL  1   1 (HERMSING)     MLTPL  1   2 (HERMSING)
     MLTPL  1   3 (HERMSING)     MLTPL  2   1 (HERMSING)     MLTPL  2   2 (HERMSING)
     MLTPL  2   3 (HERMSING)     MLTPL  2   4 (HERMSING)     MLTPL  2   5 (HERMSING)
     MLTPL  2   6 (HERMSING)     VELOCITY   1 (ANTISING)     VELOCITY   2 (ANTISING)
     VELOCITY   3 (ANTISING)     ANGMOM     1 (ANTISING)     ANGMOM     2 (ANTISING)
     ANGMOM     3 (ANTISING)     MLTPV  2   1 (ANTISING)     MLTPV  2   2 (ANTISING)
     MLTPV  2   3 (ANTISING)     MLTPV  2   4 (ANTISING)     MLTPV  2   5 (ANTISING)
     MLTPV  2   6 (ANTISING)

       EIGENSTATES OF A SPIN-FREE HAMILTONIAN WILL BE COMPUTED BASED ON:

  A Hamiltonian matrix computed by RASSI.
  SO coupling elements will be added.
       EIGENSTATES OF SPIN-ORBIT HAMILTONIAN WILL BE COMPUTED
        MATRIX ELEMENTS OVER SPIN EIGENSTATES FOR:
     MLTPL  0   1 (HERMSING)     MLTPL  1   1 (HERMSING)     MLTPL  1   2 (HERMSING)
     MLTPL  1   3 (HERMSING)     MLTPL  2   1 (HERMSING)     MLTPL  2   2 (HERMSING)
     MLTPL  2   3 (HERMSING)     MLTPL  2   4 (HERMSING)     MLTPL  2   5 (HERMSING)
     MLTPL  2   6 (HERMSING)     VELOCITY   1 (ANTISING)     VELOCITY   2 (ANTISING)
     VELOCITY   3 (ANTISING)     ANGMOM     1 (ANTISING)     ANGMOM     2 (ANTISING)
     ANGMOM     3 (ANTISING)     MLTPV  2   1 (ANTISING)     MLTPV  2   2 (ANTISING)
     MLTPV  2   3 (ANTISING)     MLTPV  2   4 (ANTISING)     MLTPV  2   5 (ANTISING)
     MLTPV  2   6 (ANTISING)

  Nr of states:                    3

   State:        1   2   3
  JobIph:        1   1   1
 Root nr:        1   2   3

  HAMILTONIAN MATRIX FOR THE ORIGINAL STATES:

  Diagonal, with energies
   -109.07902644   -109.07902644   -109.07902644

      OVERLAP MATRIX FOR THE ORIGINAL STATES:

  Diagonal, with elements
      1.00000000      1.00000000      1.00000000

::    RASSI State    1     Total energy:   -109.07902644
::    RASSI State    2     Total energy:   -109.07902644
::    RASSI State    3     Total energy:   -109.07902644



      ****************************************************************************************************
      *                                                                                                  *
      *                                         Spin-free section                                        *
      *                                                                                                  *
      *                 Note: index according to input order, order according to energy.                 *
      *                                                                                                  *
      ****************************************************************************************************



  SPIN-FREE ENERGIES:
  (Shifted by EMIN (a.u.) =       -109.0790264384)

 SF State       Relative EMIN(au)   Rel lowest level(eV)    D:o, cm**(-1)

     1             0.0000000000        0.0000000000              0.0000
     2             0.0000000000        0.0000000000              0.0000
     3             0.0000000000        0.0000000000              0.0000
 Electric-dipole - electric-octupole not included
 Electric-dipole - magnetic-quadrupole not included


      ****************************************************************************************************
      *                                                                                                  *
      *                                    Special properties section                                    *
      *                                                                                                  *
      ****************************************************************************************************


++ I/O STATISTICS
 
  I. General I/O information
  - - - - - - - - - - - - - - - - - - - - - - - - - - - - - - - - - - - - - - - - - - -
  Unit  Name          Flsize      Write/Read            MBytes           Write/Read
                      (MBytes)       Calls              In/Out           Time, sec.
  - - - - - - - - - - - - - - - - - - - - - - - - - - - - - - - - - - - - - - - - - - -
   1  SCRATCH           0.14 .       3/       6 .      0.1/      0.3 .       0/       0
   2  ANNI              0.00 .       0/       0 .      0.0/      0.0 .       0/       0
   3  RUNFILE           0.75 .     266/    1368 .      1.9/     10.1 .       0/       0
   4  ONEINT            1.63 .       0/     322 .      0.0/    293.8 .       0/       0
   5  JOBIPH            1.55 .       0/      68 .      0.0/      0.5 .       0/       0
   6  TDMFILE           0.35 .      18/      12 .      0.3/      0.2 .       0/       0
   7  ORDINT           41.53 .       1/     106 .      0.0/     26.3 .       0/       0
  - - - - - - - - - - - - - - - - - - - - - - - - - - - - - - - - - - - - - - - - - - -
   *  TOTAL            45.96 .     288/    1882 .      2.4/    331.2 .       0/       0
  - - - - - - - - - - - - - - - - - - - - - - - - - - - - - - - - - - - - - - - - - - -
 
  II. I/O Access Patterns
  - - - - - - - - - - - - - - - - - - - -
  Unit  Name               % of random
                         Write/Read calls
  - - - - - - - - - - - - - - - - - - - -
   1  SCRATCH             66.7/ 100.0
   2  ANNI                 0.0/   0.0
   3  RUNFILE             28.6/  10.3
   4  ONEINT               0.0/  81.4
   5  JOBIPH               0.0/  85.3
   6  TDMFILE             94.4/ 100.0
   7  ORDINT             100.0/  36.8
  - - - - - - - - - - - - - - - - - - - -
--
--- Stop Module: rassi at Tue Jul  6 10:51:40 2021 /rc=_RC_ALL_IS_WELL_ ---
*** files: bad_diffuse.rassi.h5 xmldump
    saved to directory /home/gayverjr/opencap_examples
--- Module rassi spent 1 second ---

.##################.
.# Happy landing! #.
.##################.

    Timing: Wall=44.44 User=270.84 System=9.97
