******************************************************
*** WorkDir and CurrDir are the same, not cleaned! ***
******************************************************
   This run of MOLCAS is using the pymolcas driver

                             OPE
                             OPE          NMOL  CASOP  ENMOLC A   SO
                 OPE        NMOLC        AS  OP EN  MO LC     AS  OP
                OPENM       OL CA        SO  PE NM  OL CA     SOP EN
                OP EN      MO   LC       AS  OP ENMOL  CASO   PENMOL
                OP  EN     MO   LC       AS  OP EN     MO     LC ASO
               OP   E  NMOL  C  AS       OP  EN MO     LC     AS  OP
               OP  E   NMO   LC AS        OPEN  MO     LCASOP EN   M
               O  PEN   MO  LCA  SO
            OPE   NMO   L   CAS    OP
        OPENMOL  CASOP     ENMOL   CASOPE
     OPENMOLCA   SOPENMOLCASOPEN   MOLCASOPE
    OPENMOLCAS   OP           EN   MOL    CAS
    OPENMOLCAS       OP  ENM        O     LCA
    OPENMOLCAS    OPEN  MOLCASO     P  E  NMO
    OPENMOLCAS     OP               E  N  MOL
    OPENMOLCA   SO           PENM   O  L  CAS    OPEN    MO    LCAS
    OPENMOLCA   SOP           ENM   O  L  CAS   OP  EN  MOLC  AS   O
    OPENMOLCA   SOPE           NM      O  LCA   S      OP  EN MO
    OPENMOLC                AS         O  PEN   M      OL  CA  SOPE
    OPENMO        LCASOPE  NMOL        C  ASO   P      ENMOLC     AS
    OPE     NMO      LCA  SO     P     E   NM   OL  CA SO  PE N   MO
          OPENMOLCA            SOPE   NMO        LCAS  O    P  ENMO
     OPENMOLCASOPENMOLCASOPENMOLCASOPENMOLCA
        OPENMOLCASOPENMOLCASOPENMOLCASOPE
            OPENMOLCASOPENMOLCASOPENM
               OPENMOLCASOPENMOLCA        version: 19.11
                   OPENMOLCASO
                       OPE                tag: 1162-ga18ab34

 OpenMolcas is free software; you can redistribute it and/or modify it
 under the terms of the GNU Lesser General Public License version 2.1.
 OpenMolcas is distributed in the hope that it will be useful, but it
 is provided "as is" and without any express or implied warranties.
 For more details see the full text of the license in the file
 LICENSE or in <http://www.gnu.org/licenses/>.

                 Copyright (C) The OpenMolcas Authors
           For the author list and the recommended citation,
                   consult the file CONTRIBUTORS.md

           *************************************************
           * pymolcas version py2.08                       *
           *   build bed633bbe89b7744c23cdbfc3f64969c      *
           *   (after the EMIL interpreter by V. Veryazov) *
           *************************************************

configuration info
------------------
C Compiler ID: GNU
C flags: -std=gnu99 -fopenmp
Fortran Compiler ID: GNU
Fortran flags: -fno-aggressive-loop-optimizations -cpp -fdefault-integer-8 -fopenmp
Definitions: _MOLCAS_;_I8_;_LINUX_;_MKL_;_DMRG_
Parallel: OFF (GA=OFF)


   ----------------------------------------------------------------------
  |
  |             Project: cart_test
  |      Submitted from: /scratch/gayverjr/cart_test.296272453
  |        Scratch area: /scratch/gayverjr/cart_test.296272453
  |     Save outputs to: /home/gayverjr/OpenCAP/molcas_tests/carts
  |              Molcas: /home/qcsoftware/OpenMolcas/qcmaquis_build/build
  |
  | Scratch area is NOT empty
  |
  |      MOLCAS_DRIVER = /home/qcsoftware/bin/pymolcas
  | MOLCAS_NEW_WORKDIR = YES
  |      MOLCAS_NPROCS = 16
  |      MOLCAS_SOURCE = /home/qcsoftware/OpenMolcas/Molcas_src
  |   MOLCAS_STRUCTURE = 0
  |
   ----------------------------------------------------------------------

++ ---------   Input file   ---------

&GATEWAY
Basis set
Ne.aug-cc-pvqz
Cartesian all
 Ne1     0.000000000      0.000000000      0.000000000     /Angstrom
End of basis set

&SEWARD

&SCF

&RASSCF
LUMORB
Charge = 0
Ras2=4
TDM
NActEl=4,0,0
CIROOT= 10 10 1

&CASPT2
MAXIter = 50
XMULtistate = all

&RASSI
TRD1
Heff
EJOB

-- ----------------------------------

--- Start Module: gateway at Tue Aug  4 16:23:44 2020 ---

()()()()()()()()()()()()()()()()()()()()()()()()()()()()()()()()()()()()()()()()()()()()()()()()()()

                                              &GATEWAY

                                   only a single process is used
                       available to each process: 20 GB of memory, 16 threads
                                             pid: 35482
()()()()()()()()()()()()()()()()()()()()()()()()()()()()()()()()()()()()()()()()()()()()()()()()()()


++    Symmetry information:
      ---------------------

                    Character Table for C1 

                             E  
                    a        1  x, y, xy, Rz, z, xz, Ry, yz, Rx, I
--


++    Basis set information:
      ----------------------


      Basis set label: NE.AUG-CC-PVQZ.........

      Electronic valence basis set:
      ------------------
      Associated Effective Charge  10.000000 au
      Associated Actual Charge     10.000000 au
      Nuclear Model: Point charge

      Shell  nPrim  nBasis  Cartesian Spherical Contaminant
         s      13       6        X                  
         p       7       5        X                  
         d       4       4        X                  
         f       3       3        X                  
         g       2       2        X                  
--


++    Molecular structure info:
      -------------------------

                    ************************************************ 
                    **** Cartesian Coordinates / Bohr, Angstrom **** 
                    ************************************************ 

     Center  Label                x              y              z                     x              y              z
        1      NE1              0.000000       0.000000       0.000000              0.000000       0.000000       0.000000
--


            Nuclear Potential Energy              0.00000000 au

--- Stop Module: gateway at Tue Aug  4 16:23:46 2020 /rc=_RC_ALL_IS_WELL_ ---
*** files: xmldump
    saved to directory /home/gayverjr/OpenCAP/molcas_tests/carts
--- Module gateway spent 1 second ---

--- Start Module: seward at Tue Aug  4 16:23:46 2020 ---

()()()()()()()()()()()()()()()()()()()()()()()()()()()()()()()()()()()()()()()()()()()()()()()()()()

                                              &SEWARD

                                   only a single process is used
                       available to each process: 20 GB of memory, 16 threads
                                             pid: 35503
()()()()()()()()()()()()()()()()()()()()()()()()()()()()()()()()()()()()()()()()()()()()()()()()()()

               SEWARD will generate:
                  Multipole Moment integrals up to order  2
                  Kinetic Energy integrals
                  Nuclear Attraction integrals (point charge)
                  One-Electron Hamiltonian integrals
                  Velocity integrals
                  Orbital angular momentum around ( 0.0000  0.0000  0.0000 )
                  Velocity quadrupole around ( 0.0000  0.0000  0.0000 )
                  Two-Electron Repulsion integrals

                   Integrals are discarded if absolute value <: 0.10E-13
                   Integral cutoff threshold is set to       <: 0.10E-15

            Nuclear Potential Energy              0.00000000 au


      Basis set specifications :
      Symmetry species         a  
      Basis functions          105


  Input file to MOLDEN was generated!

--- Stop Module: seward at Tue Aug  4 16:23:49 2020 /rc=_RC_ALL_IS_WELL_ ---
*** files: cart_test.GssOrb cart_test.guessorb.h5 cart_test.guessorb.molden xmldump
    saved to directory /home/gayverjr/OpenCAP/molcas_tests/carts
--- Module seward spent 3 seconds ---

*** symbolic link created: INPORB -> cart_test.GssOrb
--- Start Module: scf at Tue Aug  4 16:23:49 2020 ---

()()()()()()()()()()()()()()()()()()()()()()()()()()()()()()()()()()()()()()()()()()()()()()()()()()

                                                &SCF

                                   only a single process is used
                       available to each process: 20 GB of memory, 16 threads
                                             pid: 35624
()()()()()()()()()()()()()()()()()()()()()()()()()()()()()()()()()()()()()()()()()()()()()()()()()()

++    Input section:
      --------------

      Header of the integral files:
      
       Integrals generated by seward 4.2.0  , Tue Aug  4 16:23:46 2020


      Cartesian coordinates in Angstrom:
      -----------------------------------------------------
      No.  Label        X            Y            Z        
      -----------------------------------------------------
       1   NE1        0.00000000   0.00000000   0.00000000
      -----------------------------------------------------
      Nuclear repulsion energy =    0.00000000
--

++    Orbital specifications:
      -----------------------

      Symmetry species               1
                                     a
      Frozen orbitals                0
      Occupied orbitals              5
      Secondary orbitals           100
      Deleted orbitals               0
      Total number of orbitals     105
      Number of basis functions    105
--

      Molecular charge                           0.000

++    Optimization specifications:
      ----------------------------

      SCF Algorithm: Conventional
      Minimized density differences are used
      Number of density matrices in core                5
      Maximum number of NDDO SCF iterations           400
      Maximum number of HF SCF iterations             400
      Threshold for SCF energy change            0.10E-08
      Threshold for density matrix               0.10E-03
      Threshold for Fock matrix                  0.15E-03
      Threshold for linear dependence            0.10E-08
      Threshold at which DIIS is turned on       0.15E+00
      Threshold at which QNR/C2DIIS is turned on 0.75E-01
      Threshold for Norm(delta) (QNR/C2DIIS)     0.20E-04
      DIIS extrapolation of the SCF procedure
      All orbitals punched on: SCFORB
--

      Input vectors read from INPORB
      Orbital file label: *Guess orbitals


++ Convergence information
                                   SCF        iterations: Energy and convergence statistics

Iter     Tot. SCF        One-elec.       Two-elec.     Energy      Max Dij or  Max Fij      DNorm      TNorm      AccCon     Time
         Energy          Energy          Energy        Change      Delta Norm                                                in Sec.
   1  -128.528645384  -183.610889189    55.082243805   0.00E+00    0.49E-01*   0.21E+00*    0.47E+01   0.25E+04   None         1.
   2  -128.541073680  -182.065914565    53.524840885  -0.12E-01*   0.24E-01*   0.27E-01*    0.16E+01   0.24E+04   EDIIS        1.
   3  -128.543730128  -182.845580187    54.301850059  -0.27E-02*   0.38E-03*   0.88E-02*    0.22E+00   0.24E+04   c2DIIS       1.
   4  -128.544693399  -182.582883902    54.038190503  -0.96E-03*   0.21E-03*   0.16E-03*    0.13E-01   0.24E+04   QNRc2DIIS    1.
   5  -128.544693500  -182.578548213    54.033854713  -0.10E-06*   0.60E-04*   0.72E-04     0.45E-03   0.24E+04   QNRc2DIIS    1.
   6  -128.544693528  -182.579936572    54.035243044  -0.28E-07*   0.36E-05    0.40E-05     0.12E-04   0.24E+04   QNRc2DIIS    1.
   7  -128.544693528  -182.579945308    54.035251780  -0.59E-10    0.28E-06    0.35E-06     0.10E-04   0.24E+04   QNRc2DIIS    1.

       Convergence after  7 Macro Iterations
--

 *****************************************************************************************************************************
 *                                                                                                                           *
 *                                             SCF/KS-DFT Program, Final results                                             *
 *                                                                                                                           *
 *                                                                                                                           *
 *                                                                                                                           *
 *                                                       Final Results                                                       *
 *                                                                                                                           *
 *****************************************************************************************************************************

::    Total SCF energy                               -128.5446935280
      One-electron energy                            -182.5799453081
      Two-electron energy                              54.0352517801
      Nuclear repulsion energy                          0.0000000000
      Kinetic energy (interpolated)                   128.5372063191
      Virial theorem                                    1.0000582494
      Total spin, S(S+1)                                0.0000000000
      Total spin, S                                     0.0000000000
      Max non-diagonal density matrix element           0.0000002813
      Max non-diagonal Fock matrix element              0.0000000693


      All orbitals with orbital energies smaller than  E(LUMO)+0.5 are printed

++    Molecular orbitals:
      -------------------

      Title: SCF orbitals

      Molecular orbitals for symmetry species 1: a  

          Orbital            1         2         3         4         5         6         7         8         9        10    
          Energy          -32.7735   -1.9306   -0.8502   -0.8502   -0.8502    0.1415    0.1938    0.1938    0.1938    0.6360
          Occ. No.          2.0000    2.0000    2.0000    2.0000    2.0000    0.0000    0.0000    0.0000    0.0000    0.0000

        1 NE1    1s         1.0011   -0.0055   -0.0000    0.0000    0.0000    0.0285   -0.0000   -0.0000    0.0000    0.0638
        2 NE1    2s         0.0041    0.9794   -0.0000    0.0000    0.0000    0.2677   -0.0000   -0.0000    0.0000   -0.0690
        3 NE1    *s         0.0011    0.0035    0.0000   -0.0000   -0.0000    0.1692   -0.0000   -0.0000   -0.0000    0.4522
        4 NE1    *s        -0.0049    0.0514   -0.0000    0.0000    0.0000    2.7896    0.0000    0.0000    0.0000    7.1366
        5 NE1    *s         0.0011   -0.1017    0.0000   -0.0000   -0.0000   -5.2397   -0.0000   -0.0000   -0.0000  -15.3815
        6 NE1    *s         0.0002    0.0044    0.0000   -0.0000   -0.0000   -3.5914    0.0000    0.0000    0.0000   -4.7431
        7 NE1    2px        0.0000   -0.0000   -1.0004   -0.1020   -0.0523    0.0000   -0.1750    0.0685   -0.0689   -0.0000
        8 NE1    *px        0.0000   -0.0000   -0.0543   -0.0055   -0.0028    0.0000    0.4007   -0.1568    0.1578    0.0000
        9 NE1    *px       -0.0000    0.0000    0.2399    0.0244    0.0125   -0.0000   -1.3159    0.5151   -0.5182   -0.0000
       10 NE1    *px       -0.0000    0.0000    0.0561    0.0057    0.0029   -0.0000   -0.8314    0.3255   -0.3274   -0.0000
       11 NE1    *px        0.0000   -0.0000   -0.0202   -0.0021   -0.0011    0.0000    1.1791   -0.4616    0.4643    0.0000
       12 NE1    2py       -0.0000   -0.0000   -0.0839    0.3383    0.9447   -0.0000   -0.0969   -0.1334    0.1135    0.0000
       13 NE1    *py        0.0000   -0.0000   -0.0046    0.0184    0.0513    0.0000    0.2219    0.3054   -0.2598    0.0000
       14 NE1    *py       -0.0000    0.0000    0.0201   -0.0811   -0.2266   -0.0000   -0.7287   -1.0032    0.8533   -0.0000
       15 NE1    *py       -0.0000    0.0000    0.0047   -0.0190   -0.0530   -0.0000   -0.4604   -0.6339    0.5391   -0.0000
       16 NE1    *py        0.0000   -0.0000   -0.0017    0.0068    0.0191    0.0000    0.6530    0.8989   -0.7646    0.0000
       17 NE1    2pz        0.0000   -0.0000   -0.0781    0.9429   -0.3446   -0.0000    0.0071   -0.1326   -0.1498    0.0000
       18 NE1    *pz        0.0000   -0.0000   -0.0042    0.0512   -0.0187    0.0000   -0.0162    0.3035    0.3430    0.0000
       19 NE1    *pz       -0.0000    0.0000    0.0187   -0.2261    0.0826   -0.0000    0.0534   -0.9969   -1.1265   -0.0000
       20 NE1    *pz       -0.0000    0.0000    0.0044   -0.0529    0.0193   -0.0000    0.0337   -0.6299   -0.7117   -0.0000
       21 NE1    *pz        0.0000   -0.0000   -0.0016    0.0190   -0.0070    0.0000   -0.0478    0.8932    1.0094    0.0000
       22 NE1    *200      -0.0004    0.0014    0.0000   -0.0000   -0.0000   -0.0114    0.0000    0.0000   -0.0000   -0.0300
       23 NE1    *200       0.0009   -0.0025    0.0000   -0.0000   -0.0000   -0.0437    0.0000   -0.0000   -0.0000   -0.1092
       24 NE1    *200      -0.0010    0.0305   -0.0000    0.0000    0.0000    1.2408    0.0000    0.0000    0.0000    3.2202
       25 NE1    *200      -0.0002    0.0040   -0.0000    0.0000    0.0000    0.8681    0.0000    0.0000    0.0000    2.1200
       26 NE1    *110      -0.0000    0.0000    0.0000   -0.0000   -0.0000    0.0000   -0.0000   -0.0000    0.0000   -0.0000
       27 NE1    *110       0.0000   -0.0000   -0.0000    0.0000    0.0000   -0.0000    0.0000   -0.0000   -0.0000    0.0000
       28 NE1    *110       0.0000    0.0000   -0.0000    0.0000    0.0000    0.0000    0.0000    0.0000   -0.0000   -0.0000
       29 NE1    *110      -0.0000   -0.0000    0.0000   -0.0000   -0.0000   -0.0000   -0.0000   -0.0000    0.0000    0.0000
       30 NE1    *101      -0.0000   -0.0000    0.0000   -0.0000    0.0000   -0.0000   -0.0000   -0.0000   -0.0000    0.0000
       31 NE1    *101       0.0000   -0.0000   -0.0000    0.0000   -0.0000    0.0000    0.0000    0.0000    0.0000   -0.0000
       32 NE1    *101       0.0000    0.0000   -0.0000    0.0000   -0.0000   -0.0000   -0.0000    0.0000    0.0000   -0.0000
       33 NE1    *101      -0.0000   -0.0000    0.0000   -0.0000    0.0000   -0.0000   -0.0000   -0.0000   -0.0000   -0.0000
       34 NE1    *020      -0.0004    0.0014    0.0000   -0.0000   -0.0000   -0.0114    0.0000   -0.0000   -0.0000   -0.0300
       35 NE1    *020       0.0009   -0.0025    0.0000   -0.0000    0.0000   -0.0437    0.0000   -0.0000   -0.0000   -0.1092
       36 NE1    *020      -0.0010    0.0305   -0.0000    0.0000    0.0000    1.2408    0.0000    0.0000    0.0000    3.2202
       37 NE1    *020      -0.0002    0.0040   -0.0000    0.0000    0.0000    0.8681    0.0000    0.0000   -0.0000    2.1200
       38 NE1    *011      -0.0000    0.0000    0.0000   -0.0000   -0.0000    0.0000   -0.0000   -0.0000   -0.0000    0.0000
       39 NE1    *011       0.0000   -0.0000   -0.0000    0.0000    0.0000   -0.0000    0.0000    0.0000    0.0000    0.0000
       40 NE1    *011       0.0000   -0.0000   -0.0000    0.0000    0.0000    0.0000   -0.0000    0.0000   -0.0000   -0.0000
       41 NE1    *011      -0.0000    0.0000    0.0000   -0.0000   -0.0000   -0.0000    0.0000   -0.0000    0.0000    0.0000
       42 NE1    *002      -0.0004    0.0014    0.0000   -0.0000   -0.0000   -0.0114    0.0000   -0.0000   -0.0000   -0.0300
       43 NE1    *002       0.0009   -0.0025    0.0000   -0.0000   -0.0000   -0.0437   -0.0000    0.0000    0.0000   -0.1092
       44 NE1    *002      -0.0010    0.0305   -0.0000    0.0000    0.0000    1.2408    0.0000    0.0000    0.0000    3.2202
       45 NE1    *002      -0.0002    0.0040   -0.0000    0.0000    0.0000    0.8681    0.0000    0.0000    0.0000    2.1200
       46 NE1    *300       0.0000   -0.0000   -0.0015   -0.0001   -0.0001    0.0000    0.0025   -0.0010    0.0010   -0.0000
       47 NE1    *300       0.0000   -0.0000   -0.0256   -0.0026   -0.0013    0.0000    0.1447   -0.0567    0.0570    0.0000
       48 NE1    *300       0.0000   -0.0000   -0.0167   -0.0017   -0.0009    0.0000    0.1294   -0.0507    0.0510    0.0000
       49 NE1    *210       0.0000   -0.0000   -0.0001    0.0005    0.0014   -0.0000    0.0014    0.0019   -0.0016    0.0000
       50 NE1    *210       0.0000   -0.0000   -0.0021    0.0087    0.0242    0.0000    0.0802    0.1104   -0.0939    0.0000
       51 NE1    *210       0.0000   -0.0000   -0.0014    0.0056    0.0157    0.0000    0.0717    0.0987   -0.0839    0.0000
       52 NE1    *201       0.0000   -0.0000   -0.0001    0.0014   -0.0005    0.0000   -0.0001    0.0019    0.0021    0.0000
       53 NE1    *201       0.0000   -0.0000   -0.0020    0.0242   -0.0088    0.0000   -0.0059    0.1097    0.1239    0.0000
       54 NE1    *201       0.0000   -0.0000   -0.0013    0.0157   -0.0057    0.0000   -0.0052    0.0981    0.1108    0.0000
       55 NE1    *120       0.0000   -0.0000   -0.0015   -0.0001   -0.0001    0.0000    0.0025   -0.0010    0.0010   -0.0000
       56 NE1    *120       0.0000   -0.0000   -0.0256   -0.0026   -0.0013    0.0000    0.1447   -0.0567    0.0570    0.0000
       57 NE1    *120       0.0000   -0.0000   -0.0167   -0.0017   -0.0009    0.0000    0.1294   -0.0507    0.0510    0.0000
       58 NE1    *111       0.0000    0.0000    0.0000    0.0000   -0.0000   -0.0000   -0.0000    0.0000   -0.0000    0.0000
       59 NE1    *111       0.0000   -0.0000   -0.0000   -0.0000    0.0000    0.0000   -0.0000   -0.0000    0.0000   -0.0000
       60 NE1    *111      -0.0000   -0.0000    0.0000    0.0000    0.0000   -0.0000    0.0000    0.0000   -0.0000    0.0000
       61 NE1    *102       0.0000   -0.0000   -0.0015   -0.0001   -0.0001    0.0000    0.0025   -0.0010    0.0010   -0.0000
       62 NE1    *102       0.0000   -0.0000   -0.0256   -0.0026   -0.0013    0.0000    0.1447   -0.0567    0.0570    0.0000
       63 NE1    *102       0.0000   -0.0000   -0.0167   -0.0017   -0.0009    0.0000    0.1294   -0.0507    0.0510    0.0000
       64 NE1    *030       0.0000   -0.0000   -0.0001    0.0005    0.0014   -0.0000    0.0014    0.0019   -0.0016    0.0000
       65 NE1    *030       0.0000   -0.0000   -0.0021    0.0087    0.0242    0.0000    0.0802    0.1104   -0.0939    0.0000
       66 NE1    *030       0.0000   -0.0000   -0.0014    0.0056    0.0157    0.0000    0.0717    0.0987   -0.0839    0.0000
       67 NE1    *021       0.0000   -0.0000   -0.0001    0.0014   -0.0005    0.0000   -0.0001    0.0019    0.0021    0.0000
       68 NE1    *021       0.0000   -0.0000   -0.0020    0.0242   -0.0088    0.0000   -0.0059    0.1097    0.1239    0.0000
       69 NE1    *021       0.0000   -0.0000   -0.0013    0.0157   -0.0057    0.0000   -0.0052    0.0981    0.1108    0.0000
       70 NE1    *012       0.0000   -0.0000   -0.0001    0.0005    0.0014   -0.0000    0.0014    0.0019   -0.0016    0.0000
       71 NE1    *012       0.0000   -0.0000   -0.0021    0.0087    0.0242    0.0000    0.0802    0.1104   -0.0939    0.0000
       72 NE1    *012       0.0000   -0.0000   -0.0014    0.0056    0.0157    0.0000    0.0717    0.0987   -0.0839    0.0000
       73 NE1    *003       0.0000   -0.0000   -0.0001    0.0014   -0.0005    0.0000   -0.0001    0.0019    0.0021    0.0000
       74 NE1    *003       0.0000   -0.0000   -0.0020    0.0242   -0.0088    0.0000   -0.0059    0.1097    0.1239    0.0000
       75 NE1    *003       0.0000   -0.0000   -0.0013    0.0157   -0.0057    0.0000   -0.0052    0.0981    0.1108    0.0000
       76 NE1    *400      -0.0001    0.0001    0.0000   -0.0000   -0.0000   -0.0059   -0.0000   -0.0000   -0.0000   -0.0150
       77 NE1    *400       0.0001   -0.0017    0.0000   -0.0000   -0.0000   -0.0507   -0.0000   -0.0000   -0.0000   -0.1296
       78 NE1    *310      -0.0000    0.0000    0.0000    0.0000   -0.0000    0.0000   -0.0000   -0.0000    0.0000   -0.0000
       79 NE1    *310      -0.0000   -0.0000    0.0000   -0.0000   -0.0000   -0.0000   -0.0000   -0.0000    0.0000    0.0000
       80 NE1    *301      -0.0000   -0.0000    0.0000   -0.0000    0.0000   -0.0000   -0.0000   -0.0000   -0.0000    0.0000
       81 NE1    *301      -0.0000   -0.0000    0.0000   -0.0000    0.0000    0.0000    0.0000   -0.0000   -0.0000    0.0000
       82 NE1    *220      -0.0002    0.0002    0.0000   -0.0000   -0.0000   -0.0119   -0.0000   -0.0000   -0.0000   -0.0301
       83 NE1    *220       0.0002   -0.0035    0.0000   -0.0000   -0.0000   -0.1015   -0.0000   -0.0000   -0.0000   -0.2592
       84 NE1    *211      -0.0000    0.0000    0.0000   -0.0000   -0.0000    0.0000   -0.0000   -0.0000    0.0000    0.0000
       85 NE1    *211      -0.0000    0.0000    0.0000   -0.0000   -0.0000   -0.0000    0.0000   -0.0000   -0.0000    0.0000
       86 NE1    *202      -0.0002    0.0002    0.0000   -0.0000   -0.0000   -0.0119   -0.0000   -0.0000   -0.0000   -0.0301
       87 NE1    *202       0.0002   -0.0035    0.0000   -0.0000   -0.0000   -0.1015   -0.0000   -0.0000   -0.0000   -0.2592
       88 NE1    *130      -0.0000    0.0000    0.0000   -0.0000   -0.0000    0.0000   -0.0000   -0.0000    0.0000   -0.0000
       89 NE1    *130      -0.0000   -0.0000    0.0000   -0.0000   -0.0000   -0.0000   -0.0000   -0.0000    0.0000    0.0000
       90 NE1    *121      -0.0000   -0.0000    0.0000   -0.0000    0.0000   -0.0000   -0.0000   -0.0000   -0.0000    0.0000
       91 NE1    *121      -0.0000   -0.0000    0.0000   -0.0000    0.0000    0.0000    0.0000   -0.0000   -0.0000    0.0000
       92 NE1    *112      -0.0000    0.0000    0.0000   -0.0000   -0.0000    0.0000   -0.0000   -0.0000   -0.0000   -0.0000
       93 NE1    *112      -0.0000   -0.0000    0.0000   -0.0000   -0.0000   -0.0000    0.0000   -0.0000    0.0000    0.0000
       94 NE1    *103      -0.0000   -0.0000    0.0000   -0.0000    0.0000   -0.0000   -0.0000   -0.0000   -0.0000    0.0000
       95 NE1    *103      -0.0000   -0.0000    0.0000   -0.0000    0.0000    0.0000   -0.0000   -0.0000   -0.0000    0.0000
       96 NE1    *040      -0.0001    0.0001    0.0000   -0.0000   -0.0000   -0.0059   -0.0000   -0.0000    0.0000   -0.0150
       97 NE1    *040       0.0001   -0.0017    0.0000   -0.0000   -0.0000   -0.0507   -0.0000   -0.0000   -0.0000   -0.1296
       98 NE1    *031      -0.0000    0.0000    0.0000   -0.0000   -0.0000    0.0000   -0.0000   -0.0000   -0.0000    0.0000
       99 NE1    *031      -0.0000   -0.0000    0.0000   -0.0000   -0.0000    0.0000    0.0000   -0.0000   -0.0000    0.0000
      100 NE1    *022      -0.0002    0.0002    0.0000   -0.0000   -0.0000   -0.0119   -0.0000   -0.0000   -0.0000   -0.0301
      101 NE1    *022       0.0002   -0.0035    0.0000   -0.0000   -0.0000   -0.1015   -0.0000   -0.0000   -0.0000   -0.2592
      102 NE1    *013      -0.0000    0.0000    0.0000   -0.0000    0.0000    0.0000   -0.0000   -0.0000   -0.0000    0.0000
      103 NE1    *013      -0.0000   -0.0000    0.0000   -0.0000   -0.0000    0.0000    0.0000   -0.0000    0.0000    0.0000
      104 NE1    *004      -0.0001    0.0001    0.0000   -0.0000    0.0000   -0.0059   -0.0000   -0.0000   -0.0000   -0.0150
      105 NE1    *004       0.0001   -0.0017    0.0000   -0.0000   -0.0000   -0.0507   -0.0000   -0.0000   -0.0000   -0.1296
--


++    Molecular charges:
      ------------------

      Mulliken charges per centre and basis function type
      ---------------------------------------------------

                NE1   
      1s       2.0021
      2s       1.9588
      2px      2.0138
      2pz      2.0138
      2py      2.0138
      *s      -0.0690
      *px     -0.4078
      *pz     -0.4078
      *py     -0.4078
      *200     0.0587
      *110     0.0000
      *101     0.0000
      *020     0.0587
      *011     0.0000
      *002     0.0587
      *300     0.2364
      *210     0.0788
      *201     0.0788
      *120     0.0788
      *111     0.0000
      *102     0.0788
      *030     0.2364
      *021     0.0788
      *012     0.0788
      *003     0.2364
      *400    -0.0136
      *310    -0.0000
      *301    -0.0000
      *220    -0.0091
      *211    -0.0000
      *202    -0.0091
      *130    -0.0000
      *121    -0.0000
      *112    -0.0000
      *103    -0.0000
      *040    -0.0136
      *031     0.0000
      *022    -0.0091
      *013    -0.0000
      *004    -0.0136
      Total   10.0000

      N-E     -0.0000

      Total electronic charge=   10.000000

      Total            charge=   -0.000000
--


++    Molecular properties:
      ---------------------

      Charge (e):
                      =   -0.0000
      Dipole Moment (Debye):
      Origin of the operator (Ang)=    0.0000    0.0000    0.0000
                   X= -7.9557E-18               Y=  1.2706E-17               Z=  1.3195E-18           Total=  1.5049E-17
      Quadrupole Moment (Debye*Ang):
      Origin of the operator (Ang)=    0.0000    0.0000    0.0000
                  XX= -4.2023E+00              XY= -8.3204E-16              XZ=  7.5385E-16              YY= -4.2023E+00
                  YZ= -2.2748E-16              ZZ= -4.2023E+00
      In traceless form (Debye*Ang)
                  XX=  1.6128E-14              XY= -1.2481E-15              XZ=  1.1308E-15              YY= -8.0638E-15
                  YZ= -3.4123E-16              ZZ= -7.7651E-15
--


  Input file to MOLDEN was generated!

 ###############################################################################
 ###############################################################################
 ###                                                                         ###
 ###                                                                         ###
 ###    WARNING: RunFile label nBas                                          ###
 ###    was used       71 times                                              ###
 ###                                                                         ###
 ###                                                                         ###
 ###############################################################################
 ###############################################################################
--- Stop Module: scf at Tue Aug  4 16:23:53 2020 /rc=_RC_ALL_IS_WELL_ ---
*** files: cart_test.scf.molden cart_test.ScfOrb cart_test.scf.h5 xmldump
    saved to directory /home/gayverjr/OpenCAP/molcas_tests/carts
--- Module scf spent 3 seconds ---

*** symbolic link created: INPORB -> cart_test.ScfOrb
--- Start Module: rasscf at Tue Aug  4 16:23:53 2020 ---

()()()()()()()()()()()()()()()()()()()()()()()()()()()()()()()()()()()()()()()()()()()()()()()()()()

                                              &RASSCF

                                   only a single process is used
                       available to each process: 20 GB of memory, 16 threads
                                             pid: 26192
()()()()()()()()()()()()()()()()()()()()()()()()()()()()()()()()()()()()()()()()()()()()()()()()()()


      Header of the ONEINT file:
      --------------------------
      
      Integrals generated by seward 4.2.0  , Tue Aug  4 16:23:46 2020


      OrdInt status: non-squared


      Cartesian coordinates in Angstrom:
      -----------------------------------------------------
      No.  Label        X            Y            Z        
      -----------------------------------------------------
       1   NE1        0.00000000   0.00000000   0.00000000
      -----------------------------------------------------
      Nuclear repulsion energy =    0.00000000

++    Wave function specifications:
      -----------------------------

      Number of closed shell electrons           6
      Number of electrons in active shells       4
      Max number of holes in RAS1 space          0
      Max nr of electrons in RAS3 space          0
      Number of inactive orbitals                3
      Number of active orbitals                  4
      Number of secondary orbitals              98
      Spin quantum number                      0.0
      State symmetry                             1
--

++    Orbital specifications:
      -----------------------

      Symmetry species                           1
                                                 a
      Frozen orbitals                            0
      Inactive orbitals                          3
      Active orbitals                            4
      RAS1 orbitals                              0
      RAS2 orbitals                              4
      RAS3 orbitals                              0
      Secondary orbitals                        98
      Deleted orbitals                           0
      Number of basis functions                105
--

++    CI expansion specifications:
      ----------------------------

      Number of CSFs                            20
      Number of determinants                    21
      Number of root(s) required                10
      Root chosen for geometry opt.             10
      CI roots used                              1     2     3     4     5     6     7     8     9    10
      weights                                0.100 0.100 0.100 0.100 0.100 0.100 0.100 0.100 0.100 0.100
      highest root included in the CI           10
      max. size of the explicit Hamiltonian     20
--

++    Optimization specifications:
      ----------------------------

      RASSCF algorithm: Conventional
      Maximum number of macro iterations       200
      Maximum number of SX iterations          100
      Threshold for RASSCF energy            0.100E-07
      Threshold for max MO rotation          0.100E+00
      Threshold for max BLB element          0.100E-03
      Level shift parameter                  0.500E+00
      Make Quasi-Newton update
--

      The MO-coefficients are taken from the file:
      INPORB                                                                                                                          
      Title: SCF orbitals                                                                  

      Total molecular charge    0.00

      ************************************************************************************************************************
      *                                                                                                                      *
      *                                            Wave function control section                                             *
      *                                                                                                                      *
      ************************************************************************************************************************


                                         RASSCF iterations: Energy and convergence statistics
                                         ----------------------------------------------------

      Iter CI   SX   CI       RASSCF       Energy    max ROT     max BLB   max BLB  Level Ln srch  Step   QN   Walltime
          iter iter root      energy       change     param      element    value   shift minimum  type update hh:mm:ss
 Nr of preliminary CI iterations:   1
        1   1   59    0  -127.18933426    0.00E+00   0.10E+00*   3  16 1  0.41E+00*  0.19   0.00    SX    NO    0:00:04
        2   1   10    0  -127.38701736   -0.20E+00*  0.74E-01    3  41 1 -0.11E+00*  0.22   0.00    SX    NO    0:00:02
        3   1    7    0  -127.41058554   -0.24E-01*  0.48E-01    6  10 1  0.54E-01*  0.21   0.00    SX    NO    0:00:02
        4   1    7    0  -127.41617763   -0.56E-02*  0.28E-01    6  10 1  0.32E-01*  0.22   0.00    SX    NO    0:00:02
        5   1    7    0  -127.41797392   -0.18E-02*  0.30E-01    6  10 1  0.20E-01*  0.22   2.15    LS   YES    0:00:01
        6   1    7    0  -127.41869121   -0.72E-03*  0.13E-01    3  41 1  0.13E-01*  0.22   1.08    QN   YES    0:00:01
        7   1    6    0  -127.41893006   -0.24E-03* -0.27E-02    3  16 1 -0.18E-02*  0.22   0.94    QN   YES    0:00:02
        8   1    6    0  -127.41894216   -0.12E-04* -0.40E-02    3   5 1  0.71E-03*  0.22   2.50    LS   YES    0:00:02
        9   1    6    0  -127.41894981   -0.76E-05*  0.59E-02    3  16 1  0.15E-02*  0.22   1.12    QN   YES    0:00:01
       10   1    6    0  -127.41896225   -0.12E-04*  0.41E-01    3  16 1  0.15E-02*  0.22   2.50    QN   YES    0:00:02
       11   1    6    0  -127.41902522   -0.63E-04*  0.50E-01    7  16 1  0.18E-02*  0.22   1.80    QN   YES    0:00:02
       12   1    6    0  -127.41908433   -0.59E-04*  0.77E-01    7  16 1  0.24E-02*  0.23   2.31    QN   YES    0:00:01
       13   1    6    0  -127.41916496   -0.81E-04*  0.62E-01    7  16 1  0.24E-02*  0.23   1.82    QN   YES    0:00:01
       14   1    6    0  -127.41922219   -0.57E-04* -0.21E-01    7  16 1  0.16E-02*  0.23   1.58    QN   YES    0:00:02
       15   1    5    0  -127.41924479   -0.23E-04* -0.60E-02    3  16 1 -0.69E-03*  0.22   1.31    QN   YES    0:00:01
       16   1    5    0  -127.41924783   -0.30E-05* -0.35E-02    3  16 1 -0.12E-03*  0.22   1.16    QN   YES    0:00:01
       17   1    4    0  -127.41924797   -0.13E-06* -0.50E-03    6  15 1 -0.51E-04   0.22   1.13    QN   YES    0:00:02
       18   1    4    0  -127.41924797   -0.75E-08   0.36E-04    6  15 1 -0.25E-04   0.22   1.42    QN   YES    0:00:02
      Convergence after 18 iterations
       19   1    4    0  -127.41924797   -0.18E-08   0.36E-04    6  15 1 -0.64E-05   0.22   1.42    QN   YES    0:00:02

      ************************************************************************************************************************
                                                      Wave function printout:
                       occupation of active orbitals, and spin coupling of open shells (u,d: Spin up or down)
      ************************************************************************************************************************

      Note: transformation to natural orbitals
      has been made, which may change the order of the CSFs.

      printout of CI-coefficients larger than  0.05 for root  1
      energy=    -128.336827
      conf/sym  1111     Coeff  Weight
             1  2200   0.99998 0.99996

      printout of CI-coefficients larger than  0.05 for root  2
      energy=    -127.932596
      conf/sym  1111     Coeff  Weight
             4  u2d0  -1.00000 1.00000

      printout of CI-coefficients larger than  0.05 for root  3
      energy=    -127.932596
      conf/sym  1111     Coeff  Weight
             2  2ud0   1.00000 1.00000

      printout of CI-coefficients larger than  0.05 for root  4
      energy=    -127.865763
      conf/sym  1111     Coeff  Weight
             5  u20d  -1.00000 0.99999

      printout of CI-coefficients larger than  0.05 for root  5
      energy=    -127.865763
      conf/sym  1111     Coeff  Weight
             3  2u0d   1.00000 0.99999

      printout of CI-coefficients larger than  0.05 for root  6
      energy=    -126.934126
      conf/sym  1111     Coeff  Weight
            15  uudd  -1.00000 1.00000

      printout of CI-coefficients larger than  0.05 for root  7
      energy=    -126.904564
      conf/sym  1111     Coeff  Weight
             6  2020  -0.69292 0.48014
             8  2002   0.14094 0.01986
            12  0220   0.69292 0.48013
            14  0202  -0.14094 0.01986

      printout of CI-coefficients larger than  0.05 for root  8
      energy=    -126.903670
      conf/sym  1111     Coeff  Weight
             9  ud20   0.97994 0.96027
            11  ud02  -0.19932 0.03973

      printout of CI-coefficients larger than  0.05 for root  9
      energy=    -126.787939
      conf/sym  1111     Coeff  Weight
             6  2020   0.69289 0.48010
             8  2002  -0.14100 0.01988
            12  0220   0.69289 0.48010
            14  0202  -0.14100 0.01988

      printout of CI-coefficients larger than  0.05 for root 10
      energy=    -126.728636
      conf/sym  1111     Coeff  Weight
             7  20ud  -0.70711 0.50000
            13  02ud   0.70710 0.50000

      Natural orbitals and occupation numbers for root  1
      sym 1:   1.999955   1.999955   0.000088   0.000002

      Natural orbitals and occupation numbers for root  2
      sym 1:   1.000000   2.000000   1.000000   0.000000

      Natural orbitals and occupation numbers for root  3
      sym 1:   2.000000   1.000000   1.000000   0.000000

      Natural orbitals and occupation numbers for root  4
      sym 1:   0.999999   1.999985   0.000015   1.000001

      Natural orbitals and occupation numbers for root  5
      sym 1:   1.999985   1.000080   0.000015   0.999920

      Natural orbitals and occupation numbers for root  6
      sym 1:   1.000000   1.000021   1.000000   0.999979

      Natural orbitals and occupation numbers for root  7
      sym 1:   1.000007   0.999993   1.920547   0.079453

      Natural orbitals and occupation numbers for root  8
      sym 1:   1.000000   1.000000   1.920547   0.079453

      Natural orbitals and occupation numbers for root  9
      sym 1:   1.000033   1.000047   1.920397   0.079524

      Natural orbitals and occupation numbers for root 10
      sym 1:   1.000007   0.999991   1.000000   1.000001

      ************************************************************************************************************************
      *                                                                                                                      *
      *                                                    Final results                                                     *
      *                                                                                                                      *
      ************************************************************************************************************************


++    Wave function specifications:
      -----------------------------

      Number of closed shell electrons           6
      Number of electrons in active shells       4
      Max number of holes in RAS1 space          0
      Max nr of electrons in RAS3 space          0
      Number of inactive orbitals                3
      Number of active orbitals                  4
      Number of secondary orbitals              98
      Spin quantum number                      0.0
      State symmetry                             1
--

++    Orbital specifications:
      -----------------------

      Symmetry species                           1
                                                 a
      Frozen orbitals                            0
      Inactive orbitals                          3
      Active orbitals                            4
      RAS1 orbitals                              0
      RAS2 orbitals                              4
      RAS3 orbitals                              0
      Secondary orbitals                        98
      Deleted orbitals                           0
      Number of basis functions                105
--

++    CI expansion specifications:
      ----------------------------

      Number of CSFs                            20
      Number of determinants                    21
      Number of root(s) required                10
      CI roots used                              1     2     3     4     5     6     7     8     9    10
      weights                                0.100 0.100 0.100 0.100 0.100 0.100 0.100 0.100 0.100 0.100
      highest root included in the CI           10
      Root passed to geometry opt.              10
--

++    Final optimization conditions:
      ------------------------------

      Average CI energy                            -127.41924797
      RASSCF energy for state 10                   -126.72863615
      Super-CI energy                                -0.00000000
      RASSCF energy change                           -0.00000000
      Max change in MO coefficients              -0.136E-03
      Max non-diagonal density matrix element     0.364E-04
      Maximum BLB matrix element                 -0.643E-05
      (orbital pair   6,  15 in symmetry   1)
      Norm of electronic gradient            0.524E+00
--


      Final state energy(ies):
      ------------------------

::    RASSCF root number  1 Total energy:   -128.33682707
::    RASSCF root number  2 Total energy:   -127.93259620
::    RASSCF root number  3 Total energy:   -127.93259596
::    RASSCF root number  4 Total energy:   -127.86576322
::    RASSCF root number  5 Total energy:   -127.86576302
::    RASSCF root number  6 Total energy:   -126.93412584
::    RASSCF root number  7 Total energy:   -126.90456401
::    RASSCF root number  8 Total energy:   -126.90366963
::    RASSCF root number  9 Total energy:   -126.78793865
::    RASSCF root number 10 Total energy:   -126.72863615

++    Molecular orbitals:
      -------------------

      Pseudonatural active orbitals and approximate occupation numbers




      Molecular orbitals for symmetry species 1: a  


      Orbital                 1         2         3         4         5         6         7         8         9
      Energy           -33.5849   -2.4955   -1.4707    0.0000    0.0000    0.0000    0.0000    0.1238    0.1238
      Occ. No.           2.0000    2.0000    2.0000    1.3000    1.3000    0.9762    0.4238    0.0000    0.0000

     1 NE1    1s         1.0003   -0.0023   -0.0000   -0.0000   -0.0000    0.0171    0.0000   -0.0000    0.0000
     2 NE1    2s        -0.0001    1.0384   -0.0000   -0.0000   -0.0000    0.3331    0.0000   -0.0000    0.0000
     3 NE1    *s         0.0012    0.0185    0.0000   -0.0000   -0.0000    0.0912    0.0000   -0.0000    0.0000
     4 NE1    *s        -0.0036    0.0412    0.0000   -0.0000   -0.0000    1.3674    0.0000   -0.0000    0.0000
     5 NE1    *s         0.0016   -0.1551   -0.0000    0.0000    0.0000   -2.3642   -0.0000    0.0000   -0.0000
     6 NE1    *s        -0.0005    0.0252   -0.0000    0.0000    0.0000   -2.3130   -0.0000    0.0000   -0.0000
     7 NE1    2px       -0.0000   -0.0000   -1.1013   -0.1052   -0.1864    0.0000   -0.2313    0.0194   -0.0344
     8 NE1    *px        0.0000   -0.0000   -0.0727   -0.0073   -0.0129   -0.0000    0.1628   -0.0279    0.0495
     9 NE1    *px        0.0000    0.0000    0.3254    0.0305    0.0541    0.0000   -0.5512    0.0937   -0.1662
    10 NE1    *px        0.0000    0.0000    0.1838    0.0164    0.0291    0.0000   -0.2605    0.0521   -0.0925
    11 NE1    *px       -0.0000    0.0000   -0.0051   -0.0003   -0.0006   -0.0000    1.1029   -0.1167    0.2070
    12 NE1    2py        0.0000    0.0000   -0.2114    0.2675    1.0453   -0.0000   -0.0444   -0.0494    0.1928
    13 NE1    *py       -0.0000    0.0000   -0.0140    0.0185    0.0722    0.0000    0.0313    0.0710   -0.2774
    14 NE1    *py       -0.0000   -0.0000    0.0625   -0.0776   -0.3033   -0.0000   -0.1059   -0.2384    0.9313
    15 NE1    *py       -0.0000   -0.0000    0.0353   -0.0418   -0.1634   -0.0000   -0.0501   -0.1327    0.5182
    16 NE1    *py        0.0000   -0.0000   -0.0010    0.0008    0.0033    0.0000    0.2120    0.2969   -1.1598
    17 NE1    2pz        0.0000    0.0000   -0.0559    1.0604   -0.2822   -0.0000   -0.0117   -0.1956   -0.0521
    18 NE1    *pz       -0.0000    0.0000   -0.0037    0.0733   -0.0195    0.0000    0.0083    0.2814    0.0749
    19 NE1    *pz       -0.0000   -0.0000    0.0165   -0.3076    0.0819   -0.0000   -0.0279   -0.9447   -0.2515
    20 NE1    *pz       -0.0000   -0.0000    0.0093   -0.1657    0.0441   -0.0000   -0.0132   -0.5257   -0.1400
    21 NE1    *pz        0.0000   -0.0000   -0.0003    0.0034   -0.0009    0.0000    0.0559    1.1766    0.3132
    22 NE1    *200      -0.0006    0.0022    0.0000   -0.0000    0.0000   -0.0045   -0.0000    0.0000   -0.0000
    23 NE1    *200       0.0025   -0.0037    0.0000    0.0000    0.0000   -0.0203   -0.0000    0.0000   -0.0000
    24 NE1    *200      -0.0009    0.0224    0.0000   -0.0000    0.0000    0.5740    0.0000   -0.0000    0.0000
    25 NE1    *200      -0.0001   -0.0026    0.0000   -0.0000   -0.0000    0.3939   -0.0000   -0.0000    0.0000
    26 NE1    *110      -0.0001    0.0003   -0.0000   -0.0000   -0.0000    0.0002    0.0000   -0.0000    0.0000
    27 NE1    *110       0.0006   -0.0007   -0.0000    0.0000   -0.0000    0.0001    0.0000   -0.0000    0.0000
    28 NE1    *110       0.0000    0.0001   -0.0000   -0.0000   -0.0000   -0.0011   -0.0000    0.0000   -0.0000
    29 NE1    *110      -0.0000    0.0001   -0.0000   -0.0000   -0.0000    0.0032    0.0000   -0.0000    0.0000
    30 NE1    *101      -0.0000    0.0001   -0.0000   -0.0000   -0.0000    0.0000    0.0000   -0.0000    0.0000
    31 NE1    *101       0.0002   -0.0002   -0.0000   -0.0000   -0.0000    0.0000    0.0000   -0.0000    0.0000
    32 NE1    *101       0.0000    0.0000   -0.0000   -0.0000   -0.0000   -0.0003   -0.0000    0.0000   -0.0000
    33 NE1    *101      -0.0000    0.0000   -0.0000   -0.0000   -0.0000    0.0009    0.0000   -0.0000    0.0000
    34 NE1    *020      -0.0003    0.0014   -0.0000   -0.0000    0.0000   -0.0050   -0.0000    0.0000   -0.0000
    35 NE1    *020       0.0009   -0.0019   -0.0000    0.0000    0.0000   -0.0205    0.0000    0.0000   -0.0000
    36 NE1    *020      -0.0009    0.0223   -0.0000   -0.0000    0.0000    0.5768    0.0000   -0.0000    0.0000
    37 NE1    *020      -0.0001   -0.0028   -0.0000   -0.0000    0.0000    0.3857    0.0000   -0.0000   -0.0000
    38 NE1    *011      -0.0000    0.0000   -0.0000    0.0000    0.0000    0.0000    0.0000    0.0000   -0.0000
    39 NE1    *011       0.0000   -0.0000   -0.0000    0.0000    0.0000    0.0000    0.0000    0.0000   -0.0000
    40 NE1    *011       0.0000    0.0000   -0.0000    0.0000    0.0000   -0.0001   -0.0000   -0.0000    0.0000
    41 NE1    *011      -0.0000    0.0000   -0.0000    0.0000    0.0000    0.0002    0.0000    0.0000   -0.0000
    42 NE1    *002      -0.0002    0.0014   -0.0000    0.0000   -0.0000   -0.0050   -0.0000    0.0000    0.0000
    43 NE1    *002       0.0008   -0.0019   -0.0000    0.0000   -0.0000   -0.0205    0.0000    0.0000    0.0000
    44 NE1    *002      -0.0009    0.0223   -0.0000   -0.0000   -0.0000    0.5769    0.0000   -0.0000   -0.0000
    45 NE1    *002      -0.0001   -0.0028   -0.0000   -0.0000   -0.0000    0.3854    0.0000   -0.0000    0.0000
    46 NE1    *300      -0.0000   -0.0000   -0.0011   -0.0001   -0.0001   -0.0000    0.0011   -0.0002    0.0003
    47 NE1    *300      -0.0000   -0.0000   -0.0304   -0.0029   -0.0052   -0.0000    0.0602   -0.0103    0.0182
    48 NE1    *300      -0.0000   -0.0000   -0.0178   -0.0017   -0.0031   -0.0000    0.0525   -0.0090    0.0159
    49 NE1    *210       0.0000    0.0000    0.0001    0.0002    0.0009    0.0000    0.0002    0.0005   -0.0019
    50 NE1    *210       0.0000    0.0000   -0.0054    0.0075    0.0292    0.0000    0.0117    0.0261   -0.1020
    51 NE1    *210       0.0000    0.0000   -0.0031    0.0045    0.0174    0.0000    0.0097    0.0228   -0.0891
    52 NE1    *201       0.0000    0.0000    0.0000    0.0008   -0.0002    0.0000    0.0001    0.0019    0.0005
    53 NE1    *201       0.0000    0.0000   -0.0014    0.0296   -0.0078    0.0000    0.0031    0.1035    0.0276
    54 NE1    *201       0.0000    0.0000   -0.0008    0.0176   -0.0046    0.0000    0.0026    0.0903    0.0240
    55 NE1    *120      -0.0000   -0.0000   -0.0017   -0.0003   -0.0005   -0.0000    0.0012   -0.0002    0.0003
    56 NE1    *120      -0.0000   -0.0000   -0.0314   -0.0032   -0.0057   -0.0000    0.0599   -0.0102    0.0179
    57 NE1    *120      -0.0000   -0.0000   -0.0185   -0.0019   -0.0035   -0.0000    0.0535   -0.0092    0.0165
    58 NE1    *111       0.0000   -0.0000    0.0000   -0.0003   -0.0001    0.0000   -0.0000    0.0000   -0.0000
    59 NE1    *111       0.0000   -0.0000    0.0001   -0.0005   -0.0001    0.0000    0.0000    0.0002    0.0000
    60 NE1    *111      -0.0000    0.0000    0.0000   -0.0004   -0.0001   -0.0000   -0.0001   -0.0005   -0.0000
    61 NE1    *102      -0.0000   -0.0000   -0.0018   -0.0002   -0.0003   -0.0000    0.0012   -0.0002    0.0003
    62 NE1    *102      -0.0000   -0.0000   -0.0315   -0.0031   -0.0054   -0.0000    0.0599   -0.0102    0.0181
    63 NE1    *102      -0.0000   -0.0000   -0.0185   -0.0019   -0.0032   -0.0000    0.0536   -0.0092    0.0161
    64 NE1    *030       0.0000    0.0000   -0.0003    0.0004    0.0014    0.0000    0.0002    0.0005   -0.0018
    65 NE1    *030       0.0000    0.0000   -0.0060    0.0078    0.0300    0.0000    0.0115    0.0260   -0.1015
    66 NE1    *030       0.0000    0.0000   -0.0036    0.0047    0.0181    0.0000    0.0103    0.0231   -0.0901
    67 NE1    *021       0.0000    0.0000   -0.0001    0.0017   -0.0003    0.0000    0.0001    0.0019    0.0005
    68 NE1    *021       0.0000    0.0000   -0.0016    0.0308   -0.0079    0.0000    0.0030    0.1030    0.0274
    69 NE1    *021       0.0000    0.0000   -0.0009    0.0185   -0.0048    0.0000    0.0027    0.0914    0.0244
    70 NE1    *012       0.0000    0.0000   -0.0003    0.0002    0.0017    0.0000    0.0002    0.0005   -0.0018
    71 NE1    *012       0.0000    0.0000   -0.0060    0.0074    0.0304    0.0000    0.0115    0.0260   -0.1015
    72 NE1    *012       0.0000    0.0000   -0.0036    0.0045    0.0183    0.0000    0.0103    0.0231   -0.0902
    73 NE1    *003       0.0000    0.0000   -0.0001    0.0015   -0.0005    0.0000    0.0001    0.0019    0.0005
    74 NE1    *003       0.0000    0.0000   -0.0016    0.0305   -0.0082    0.0000    0.0030    0.1030    0.0274
    75 NE1    *003       0.0000    0.0000   -0.0009    0.0184   -0.0049    0.0000    0.0027    0.0915    0.0244
    76 NE1    *400      -0.0002    0.0003    0.0000    0.0000    0.0000   -0.0026   -0.0000    0.0000   -0.0000
    77 NE1    *400       0.0001   -0.0015   -0.0000    0.0000   -0.0000   -0.0234   -0.0000    0.0000   -0.0000
    78 NE1    *310      -0.0001    0.0001   -0.0000   -0.0000    0.0000    0.0000    0.0000   -0.0000    0.0000
    79 NE1    *310      -0.0000    0.0000    0.0000    0.0000    0.0000    0.0001    0.0000   -0.0000    0.0000
    80 NE1    *301      -0.0000    0.0000   -0.0000    0.0000    0.0000    0.0000    0.0000   -0.0000    0.0000
    81 NE1    *301      -0.0000    0.0000    0.0000    0.0000    0.0000    0.0000    0.0000   -0.0000    0.0000
    82 NE1    *220      -0.0003    0.0004    0.0000    0.0000   -0.0000   -0.0054   -0.0000    0.0000   -0.0000
    83 NE1    *220       0.0002   -0.0031   -0.0000    0.0000   -0.0000   -0.0472   -0.0000    0.0000   -0.0000
    84 NE1    *211      -0.0000    0.0000    0.0000   -0.0000   -0.0000    0.0000    0.0000    0.0000   -0.0000
    85 NE1    *211      -0.0000    0.0000    0.0000   -0.0000   -0.0000    0.0000    0.0000    0.0000   -0.0000
    86 NE1    *202      -0.0003    0.0004    0.0000    0.0000    0.0000   -0.0054   -0.0000    0.0000    0.0000
    87 NE1    *202       0.0002   -0.0031   -0.0000    0.0000    0.0000   -0.0472   -0.0000    0.0000    0.0000
    88 NE1    *130      -0.0001    0.0001   -0.0000   -0.0000    0.0000    0.0000    0.0000   -0.0000    0.0000
    89 NE1    *130      -0.0000    0.0000    0.0000    0.0000    0.0000    0.0001    0.0000   -0.0000    0.0000
    90 NE1    *121      -0.0000    0.0000   -0.0000   -0.0000   -0.0000    0.0000    0.0000   -0.0000    0.0000
    91 NE1    *121      -0.0000    0.0000    0.0000    0.0000    0.0000    0.0000    0.0000   -0.0000    0.0000
    92 NE1    *112      -0.0001    0.0001   -0.0000   -0.0000    0.0000    0.0000    0.0000   -0.0000    0.0000
    93 NE1    *112      -0.0000    0.0000    0.0000    0.0000    0.0000    0.0001    0.0000   -0.0000    0.0000
    94 NE1    *103      -0.0000    0.0000   -0.0000   -0.0000    0.0000    0.0000    0.0000   -0.0000    0.0000
    95 NE1    *103      -0.0000    0.0000    0.0000    0.0000    0.0000    0.0000    0.0000   -0.0000    0.0000
    96 NE1    *040      -0.0001    0.0001   -0.0000    0.0000   -0.0000   -0.0027    0.0000    0.0000   -0.0000
    97 NE1    *040       0.0001   -0.0016    0.0000    0.0000   -0.0000   -0.0238    0.0000    0.0000   -0.0000
    98 NE1    *031      -0.0000    0.0000   -0.0000   -0.0000   -0.0000    0.0000    0.0000    0.0000   -0.0000
    99 NE1    *031      -0.0000    0.0000    0.0000   -0.0000   -0.0000    0.0000    0.0000    0.0000   -0.0000
   100 NE1    *022      -0.0001    0.0002   -0.0000    0.0000    0.0000   -0.0055    0.0000    0.0000   -0.0000
   101 NE1    *022       0.0002   -0.0032    0.0000    0.0000    0.0000   -0.0475    0.0000    0.0000   -0.0000
   102 NE1    *013      -0.0000    0.0000   -0.0000   -0.0000   -0.0000    0.0000    0.0000    0.0000   -0.0000
   103 NE1    *013      -0.0000   -0.0000    0.0000   -0.0000   -0.0000    0.0000    0.0000    0.0000   -0.0000
   104 NE1    *004      -0.0001    0.0001   -0.0000    0.0000    0.0000   -0.0027    0.0000    0.0000    0.0000
   105 NE1    *004       0.0001   -0.0016    0.0000    0.0000    0.0000   -0.0238    0.0000    0.0000    0.0000
--

      Von Neumann Entropy (Root  1) =  0.00072


      Mulliken population analysis for root number:  1
      -----------------------------------------------


++    Molecular charges:
      ------------------

      Mulliken charges per centre and basis function type
      ---------------------------------------------------

                NE1   
      1s       2.0007
      2s       2.0736
      2px      2.2287
      2pz      2.1859
      2py      2.1874
      *s      -0.1265
      *px     -0.6629
      *pz     -0.6287
      *py     -0.6299
      *200     0.0338
      *110    -0.0000
      *101    -0.0000
      *020     0.0360
      *011    -0.0000
      *002     0.0361
      *300     0.2547
      *210     0.0846
      *201     0.0846
      *120     0.0897
      *111     0.0000
      *102     0.0899
      *030     0.2675
      *021     0.0902
      *012     0.0904
      *003     0.2680
      *400    -0.0090
      *310     0.0000
      *301     0.0000
      *220    -0.0068
      *211     0.0000
      *202    -0.0069
      *130     0.0000
      *121     0.0000
      *112     0.0000
      *103     0.0000
      *040    -0.0115
      *031     0.0000
      *022    -0.0077
      *013     0.0000
      *004    -0.0116
      Total   10.0000

      N-E     -0.0000

      Total electronic charge=   10.000000

      Total            charge=   -0.000000
--



      Expectation values of various properties for root number:  1
      -----------------------------------------------------------


++    Molecular properties:
      ---------------------

      Charge (e):
                      =   -0.0000
      Dipole Moment (Debye):
      Origin of the operator (Ang)=    0.0000    0.0000    0.0000
                   X= -1.3375E-08               Y=  3.5514E-08               Z=  1.3303E-07           Total=  1.3834E-07
      Quadrupole Moment (Debye*Ang):
      Origin of the operator (Ang)=    0.0000    0.0000    0.0000
                  XX= -3.3308E+00              XY=  9.2132E-03              XZ=  2.4490E-03              YY= -3.3772E+00
                  YZ=  4.7031E-04              ZZ= -3.3788E+00
      In traceless form (Debye*Ang)
                  XX=  4.7175E-02              XY=  1.3820E-02              XZ=  3.6735E-03              YY= -2.2362E-02
                  YZ=  7.0547E-04              ZZ= -2.4813E-02
--

      Von Neumann Entropy (Root  2) =  1.00001


      Mulliken population analysis for root number:  2
      -----------------------------------------------


++    Molecular charges:
      ------------------

      Mulliken charges per centre and basis function type
      ---------------------------------------------------

                NE1   
      1s       2.0007
      2s       2.0640
      2px      2.2186
      2pz      1.1679
      2py      2.1225
      *s       2.6215
      *px     -0.6600
      *pz     -0.3359
      *py     -0.6112
      *200    -0.6044
      *110     0.0000
      *101     0.0000
      *020    -0.6076
      *011     0.0000
      *002    -0.6077
      *300     0.2535
      *210     0.0821
      *201     0.0452
      *120     0.0892
      *111     0.0000
      *102     0.0894
      *030     0.2594
      *021     0.0481
      *012     0.0879
      *003     0.1433
      *400     0.0268
      *310     0.0000
      *301     0.0000
      *220     0.0178
      *211     0.0000
      *202     0.0178
      *130     0.0000
      *121     0.0000
      *112     0.0000
      *103     0.0000
      *040     0.0266
      *031     0.0000
      *022     0.0178
      *013     0.0000
      *004     0.0266
      Total   10.0000

      N-E     -0.0000

      Total electronic charge=   10.000000

      Total            charge=   -0.000000
--



      Expectation values of various properties for root number:  2
      -----------------------------------------------------------


++    Molecular properties:
      ---------------------

      Charge (e):
                      =   -0.0000
      Dipole Moment (Debye):
      Origin of the operator (Ang)=    0.0000    0.0000    0.0000
                   X= -4.7090E-07               Y=  1.3072E-06               Z=  4.8662E-06           Total=  5.0607E-06
      Quadrupole Moment (Debye*Ang):
      Origin of the operator (Ang)=    0.0000    0.0000    0.0000
                  XX= -8.4082E+00              XY=  1.1591E-02              XZ= -4.1375E-02              YY= -8.5007E+00
                  YZ=  1.2234E-01              ZZ= -8.0556E+00
      In traceless form (Debye*Ang)
                  XX= -1.2999E-01              XY=  1.7387E-02              XZ= -6.2063E-02              YY= -2.6883E-01
                  YZ=  1.8351E-01              ZZ=  3.9882E-01
--

      Von Neumann Entropy (Root  3) =  1.00001


      Mulliken population analysis for root number:  3
      -----------------------------------------------


++    Molecular charges:
      ------------------

      Mulliken charges per centre and basis function type
      ---------------------------------------------------

                NE1   
      1s       2.0007
      2s       2.0640
      2px      2.1972
      2pz      2.1138
      2py      1.1981
      *s       2.6215
      *px     -0.6538
      *pz     -0.6080
      *py     -0.3454
      *200    -0.6044
      *110     0.0000
      *101     0.0000
      *020    -0.6076
      *011     0.0000
      *002    -0.6077
      *300     0.2510
      *210     0.0462
      *201     0.0818
      *120     0.0883
      *111     0.0000
      *102     0.0886
      *030     0.1466
      *021     0.0874
      *012     0.0493
      *003     0.2590
      *400     0.0268
      *310     0.0000
      *301     0.0000
      *220     0.0178
      *211     0.0000
      *202     0.0178
      *130     0.0000
      *121     0.0000
      *112     0.0000
      *103     0.0000
      *040     0.0266
      *031     0.0000
      *022     0.0178
      *013     0.0000
      *004     0.0266
      Total   10.0000

      N-E     -0.0000

      Total electronic charge=   10.000000

      Total            charge=   -0.000000
--



      Expectation values of various properties for root number:  3
      -----------------------------------------------------------


++    Molecular properties:
      ---------------------

      Charge (e):
                      =   -0.0000
      Dipole Moment (Debye):
      Origin of the operator (Ang)=    0.0000    0.0000    0.0000
                   X= -5.0565E-07               Y=  1.3929E-06               Z=  5.2258E-06           Total=  5.4318E-06
      Quadrupole Moment (Debye*Ang):
      Origin of the operator (Ang)=    0.0000    0.0000    0.0000
                  XX= -8.3981E+00              XY= -5.9524E-02              XZ=  2.8695E-02              YY= -8.0650E+00
                  YZ= -1.2477E-01              ZZ= -8.5015E+00
      In traceless form (Debye*Ang)
                  XX= -1.1484E-01              XY= -8.9287E-02              XZ=  4.3043E-02              YY=  3.8483E-01
                  YZ= -1.8716E-01              ZZ= -2.6998E-01
--

      Von Neumann Entropy (Root  4) =  1.00014


      Mulliken population analysis for root number:  4
      -----------------------------------------------


++    Molecular charges:
      ------------------

      Mulliken charges per centre and basis function type
      ---------------------------------------------------

                NE1   
      1s       2.0007
      2s       2.0736
      2px      2.2031
      2pz      1.1680
      2py      2.1218
      *s      -0.1267
      *px      0.2209
      *pz     -0.3337
      *py     -0.5787
      *200     0.0338
      *110    -0.0000
      *101    -0.0000
      *020     0.0361
      *011    -0.0000
      *002     0.0362
      *300     0.3110
      *210     0.0827
      *201     0.0452
      *120     0.1088
      *111     0.0000
      *102     0.1091
      *030     0.2616
      *021     0.0481
      *012     0.0886
      *003     0.1435
      *400    -0.0090
      *310     0.0000
      *301     0.0000
      *220    -0.0068
      *211     0.0000
      *202    -0.0069
      *130     0.0000
      *121     0.0000
      *112     0.0000
      *103     0.0000
      *040    -0.0116
      *031     0.0000
      *022    -0.0077
      *013     0.0000
      *004    -0.0116
      Total   10.0000

      N-E     -0.0000

      Total electronic charge=   10.000000

      Total            charge=   -0.000000
--



      Expectation values of various properties for root number:  4
      -----------------------------------------------------------


++    Molecular properties:
      ---------------------

      Charge (e):
                      =   -0.0000
      Dipole Moment (Debye):
      Origin of the operator (Ang)=    0.0000    0.0000    0.0000
                   X=  3.4073E-08               Y= -9.5400E-08               Z= -3.5948E-07           Total=  3.7348E-07
      Quadrupole Moment (Debye*Ang):
      Origin of the operator (Ang)=    0.0000    0.0000    0.0000
                  XX= -1.6402E+01              XY= -1.6890E+00              XZ= -4.9009E-01              YY= -7.9725E+00
                  YZ=  3.6202E-02              ZZ= -7.2235E+00
      In traceless form (Debye*Ang)
                  XX= -8.8044E+00              XY= -2.5335E+00              XZ= -7.3513E-01              YY=  3.8404E+00
                  YZ=  5.4303E-02              ZZ=  4.9640E+00
--

      Von Neumann Entropy (Root  5) =  1.00014


      Mulliken population analysis for root number:  5
      -----------------------------------------------


++    Molecular charges:
      ------------------

      Mulliken charges per centre and basis function type
      ---------------------------------------------------

                NE1   
      1s       2.0007
      2s       2.0736
      2px      2.1817
      2pz      2.1136
      2py      1.1977
      *s      -0.1267
      *px      0.2270
      *pz     -0.6057
      *py     -0.3129
      *200     0.0338
      *110    -0.0000
      *101    -0.0000
      *020     0.0361
      *011    -0.0000
      *002     0.0362
      *300     0.3085
      *210     0.0468
      *201     0.0818
      *120     0.1078
      *111     0.0000
      *102     0.1082
      *030     0.1488
      *021     0.0874
      *012     0.0500
      *003     0.2591
      *400    -0.0090
      *310     0.0000
      *301     0.0000
      *220    -0.0068
      *211     0.0000
      *202    -0.0069
      *130     0.0000
      *121     0.0000
      *112     0.0000
      *103     0.0000
      *040    -0.0116
      *031     0.0000
      *022    -0.0077
      *013     0.0000
      *004    -0.0116
      Total   10.0000

      N-E     -0.0000

      Total electronic charge=   10.000000

      Total            charge=   -0.000000
--



      Expectation values of various properties for root number:  5
      -----------------------------------------------------------


++    Molecular properties:
      ---------------------

      Charge (e):
                      =   -0.0000
      Dipole Moment (Debye):
      Origin of the operator (Ang)=    0.0000    0.0000    0.0000
                   X=  2.5724E-08               Y= -7.4652E-08               Z= -2.7268E-07           Total=  2.8388E-07
      Quadrupole Moment (Debye*Ang):
      Origin of the operator (Ang)=    0.0000    0.0000    0.0000
                  XX= -1.6392E+01              XY= -1.7601E+00              XZ= -4.2000E-01              YY= -7.5369E+00
                  YZ= -2.1109E-01              ZZ= -7.6692E+00
      In traceless form (Debye*Ang)
                  XX= -8.7893E+00              XY= -2.6401E+00              XZ= -6.2999E-01              YY=  4.4939E+00
                  YZ= -3.1664E-01              ZZ=  4.2954E+00
--

      Von Neumann Entropy (Root  6) =  2.00000


      Mulliken population analysis for root number:  6
      -----------------------------------------------


++    Molecular charges:
      ------------------

      Mulliken charges per centre and basis function type
      ---------------------------------------------------

                NE1   
      1s       2.0007
      2s       2.0640
      2px      2.1716
      2pz      1.0957
      2py      1.1327
      *s       2.6215
      *px      0.2299
      *pz     -0.3129
      *py     -0.2942
      *200    -0.6044
      *110     0.0000
      *101     0.0000
      *020    -0.6076
      *011     0.0000
      *002    -0.6077
      *300     0.3073
      *210     0.0443
      *201     0.0424
      *120     0.1074
      *111     0.0000
      *102     0.1078
      *030     0.1407
      *021     0.0453
      *012     0.0475
      *003     0.1345
      *400     0.0268
      *310     0.0000
      *301     0.0000
      *220     0.0178
      *211     0.0000
      *202     0.0178
      *130     0.0000
      *121     0.0000
      *112     0.0000
      *103     0.0000
      *040     0.0266
      *031     0.0000
      *022     0.0178
      *013     0.0000
      *004     0.0266
      Total   10.0000

      N-E     -0.0000

      Total electronic charge=   10.000000

      Total            charge=   -0.000000
--



      Expectation values of various properties for root number:  6
      -----------------------------------------------------------


++    Molecular properties:
      ---------------------

      Charge (e):
                      =   -0.0000
      Dipole Moment (Debye):
      Origin of the operator (Ang)=    0.0000    0.0000    0.0000
                   X= -4.8101E-07               Y=  1.3237E-06               Z=  4.9501E-06           Total=  5.1465E-06
      Quadrupole Moment (Debye*Ang):
      Origin of the operator (Ang)=    0.0000    0.0000    0.0000
                  XX= -2.1470E+01              XY= -1.7578E+00              XZ= -4.6382E-01              YY= -1.2661E+01
                  YZ= -8.9131E-02              ZZ= -1.2346E+01
      In traceless form (Debye*Ang)
                  XX= -8.9665E+00              XY= -2.6367E+00              XZ= -6.9573E-01              YY=  4.2475E+00
                  YZ= -1.3370E-01              ZZ=  4.7189E+00
--

      Von Neumann Entropy (Root  7) =  1.24104


      Mulliken population analysis for root number:  7
      -----------------------------------------------


++    Molecular charges:
      ------------------

      Mulliken charges per centre and basis function type
      ---------------------------------------------------

                NE1   
      1s       2.0007
      2s       2.0551
      2px      2.1860
      2pz      1.0957
      2py      1.1332
      *s       5.1513
      *px     -0.5810
      *pz     -0.3150
      *py     -0.3241
      *200    -1.1919
      *110     0.0000
      *101     0.0000
      *020    -1.2001
      *011     0.0000
      *002    -1.2004
      *300     0.2544
      *210     0.0437
      *201     0.0424
      *120     0.0894
      *111     0.0000
      *102     0.0897
      *030     0.1387
      *021     0.0452
      *012     0.0469
      *003     0.1343
      *400     0.0599
      *310     0.0000
      *301     0.0000
      *220     0.0405
      *211     0.0000
      *202     0.0406
      *130     0.0000
      *121     0.0000
      *112     0.0000
      *103     0.0000
      *040     0.0618
      *031     0.0000
      *022     0.0412
      *013     0.0000
      *004     0.0619
      Total   10.0000

      N-E     -0.0000

      Total electronic charge=   10.000000

      Total            charge=   -0.000000
--



      Expectation values of various properties for root number:  7
      -----------------------------------------------------------


++    Molecular properties:
      ---------------------

      Charge (e):
                      =   -0.0000
      Dipole Moment (Debye):
      Origin of the operator (Ang)=    0.0000    0.0000    0.0000
                   X= -1.0255E-06               Y=  2.6952E-06               Z=  1.0105E-05           Total=  1.0509E-05
      Quadrupole Moment (Debye*Ang):
      Origin of the operator (Ang)=    0.0000    0.0000    0.0000
                  XX= -1.4111E+01              XY= -1.9229E-01              XZ= -5.0773E-02              YY= -1.3147E+01
                  YZ= -9.7565E-03              ZZ= -1.3113E+01
      In traceless form (Debye*Ang)
                  XX= -9.8123E-01              XY= -2.8844E-01              XZ= -7.6160E-02              YY=  4.6485E-01
                  YZ= -1.4635E-02              ZZ=  5.1638E-01
--

      Von Neumann Entropy (Root  8) =  1.24104


      Mulliken population analysis for root number:  8
      -----------------------------------------------


++    Molecular charges:
      ------------------

      Mulliken charges per centre and basis function type
      ---------------------------------------------------

                NE1   
      1s       2.0007
      2s       2.0551
      2px      2.1860
      2pz      1.0957
      2py      1.1332
      *s       5.1513
      *px     -0.5810
      *pz     -0.3150
      *py     -0.3241
      *200    -1.1919
      *110     0.0000
      *101     0.0000
      *020    -1.2001
      *011     0.0000
      *002    -1.2004
      *300     0.2544
      *210     0.0437
      *201     0.0424
      *120     0.0894
      *111     0.0000
      *102     0.0897
      *030     0.1387
      *021     0.0452
      *012     0.0469
      *003     0.1343
      *400     0.0599
      *310     0.0000
      *301     0.0000
      *220     0.0405
      *211     0.0000
      *202     0.0406
      *130     0.0000
      *121     0.0000
      *112     0.0000
      *103     0.0000
      *040     0.0618
      *031     0.0000
      *022     0.0412
      *013     0.0000
      *004     0.0619
      Total   10.0000

      N-E     -0.0000

      Total electronic charge=   10.000000

      Total            charge=   -0.000000
--



      Expectation values of various properties for root number:  8
      -----------------------------------------------------------


++    Molecular properties:
      ---------------------

      Charge (e):
                      =   -0.0000
      Dipole Moment (Debye):
      Origin of the operator (Ang)=    0.0000    0.0000    0.0000
                   X= -1.0255E-06               Y=  2.6952E-06               Z=  1.0105E-05           Total=  1.0509E-05
      Quadrupole Moment (Debye*Ang):
      Origin of the operator (Ang)=    0.0000    0.0000    0.0000
                  XX= -1.4111E+01              XY= -1.9229E-01              XZ= -5.0774E-02              YY= -1.3147E+01
                  YZ= -9.7547E-03              ZZ= -1.3113E+01
      In traceless form (Debye*Ang)
                  XX= -9.8123E-01              XY= -2.8844E-01              XZ= -7.6161E-02              YY=  4.6484E-01
                  YZ= -1.4632E-02              ZZ=  5.1638E-01
--

      Von Neumann Entropy (Root  9) =  1.24124


      Mulliken population analysis for root number:  9
      -----------------------------------------------


++    Molecular charges:
      ------------------

      Mulliken charges per centre and basis function type
      ---------------------------------------------------

                NE1   
      1s       2.0007
      2s       2.0551
      2px      2.1860
      2pz      1.0958
      2py      1.1333
      *s       5.1509
      *px     -0.5809
      *pz     -0.3150
      *py     -0.3242
      *200    -1.1918
      *110     0.0000
      *101     0.0000
      *020    -1.2001
      *011     0.0000
      *002    -1.2003
      *300     0.2544
      *210     0.0437
      *201     0.0424
      *120     0.0894
      *111     0.0000
      *102     0.0897
      *030     0.1387
      *021     0.0452
      *012     0.0469
      *003     0.1343
      *400     0.0599
      *310     0.0000
      *301     0.0000
      *220     0.0405
      *211     0.0000
      *202     0.0406
      *130     0.0000
      *121     0.0000
      *112     0.0000
      *103     0.0000
      *040     0.0618
      *031     0.0000
      *022     0.0412
      *013     0.0000
      *004     0.0618
      Total   10.0000

      N-E     -0.0000

      Total electronic charge=   10.000000

      Total            charge=   -0.000000
--



      Expectation values of various properties for root number:  9
      -----------------------------------------------------------


++    Molecular properties:
      ---------------------

      Charge (e):
                      =   -0.0000
      Dipole Moment (Debye):
      Origin of the operator (Ang)=    0.0000    0.0000    0.0000
                   X= -1.0261E-06               Y=  2.6969E-06               Z=  1.0111E-05           Total=  1.0515E-05
      Quadrupole Moment (Debye*Ang):
      Origin of the operator (Ang)=    0.0000    0.0000    0.0000
                  XX= -1.4111E+01              XY= -1.9241E-01              XZ= -5.0805E-02              YY= -1.3147E+01
                  YZ= -9.7589E-03              ZZ= -1.3112E+01
      In traceless form (Debye*Ang)
                  XX= -9.8182E-01              XY= -2.8861E-01              XZ= -7.6207E-02              YY=  4.6512E-01
                  YZ= -1.4638E-02              ZZ=  5.1670E-01
--

      Von Neumann Entropy (Root 10) =  2.00000


      Mulliken population analysis for root number: 10
      -----------------------------------------------


++    Molecular charges:
      ------------------

      Mulliken charges per centre and basis function type
      ---------------------------------------------------

                NE1   
      1s       2.0007
      2s       2.0640
      2px      2.1716
      2pz      1.0957
      2py      1.1327
      *s       2.6215
      *px      0.2299
      *pz     -0.3129
      *py     -0.2942
      *200    -0.6044
      *110     0.0000
      *101     0.0000
      *020    -0.6076
      *011     0.0000
      *002    -0.6077
      *300     0.3073
      *210     0.0443
      *201     0.0424
      *120     0.1074
      *111     0.0000
      *102     0.1078
      *030     0.1407
      *021     0.0453
      *012     0.0475
      *003     0.1345
      *400     0.0268
      *310     0.0000
      *301     0.0000
      *220     0.0178
      *211     0.0000
      *202     0.0178
      *130     0.0000
      *121     0.0000
      *112     0.0000
      *103     0.0000
      *040     0.0266
      *031     0.0000
      *022     0.0178
      *013     0.0000
      *004     0.0266
      Total   10.0000

      N-E     -0.0000

      Total electronic charge=   10.000000

      Total            charge=   -0.000000
--



      Expectation values of various properties for root number: 10
      -----------------------------------------------------------


++    Molecular properties:
      ---------------------

      Charge (e):
                      =   -0.0000
      Dipole Moment (Debye):
      Origin of the operator (Ang)=    0.0000    0.0000    0.0000
                   X= -5.7140E-07               Y=  1.3218E-06               Z=  4.9999E-06           Total=  5.2031E-06
      Quadrupole Moment (Debye*Ang):
[...]
           4  ( 2:1:   1/   2)   u2d0           -0.999994       0.999989

  The CI coefficients for the MIXED state nr.   3
--------------------------------------------------------------------------------
 CI COEFFICIENTS LARGER THAN  0.50D-01
  Occupation of active orbitals, and spin coupling
  of open shells. (u,d: Spin up or down).
  SGUGA info is (Midvert:IsyUp:UpperWalk/LowerWalk)
        Conf  SGUGA info        Occupation    Coefficient         Weight
           2  ( 2:1:   1/   1)   2ud0            0.999994       0.999989

  The CI coefficients for the MIXED state nr.   4
--------------------------------------------------------------------------------
 CI COEFFICIENTS LARGER THAN  0.50D-01
  Occupation of active orbitals, and spin coupling
  of open shells. (u,d: Spin up or down).
  SGUGA info is (Midvert:IsyUp:UpperWalk/LowerWalk)
        Conf  SGUGA info        Occupation    Coefficient         Weight
           3  ( 2:1:   2/   1)   2u0d            0.999996       0.999992

  The CI coefficients for the MIXED state nr.   5
--------------------------------------------------------------------------------
 CI COEFFICIENTS LARGER THAN  0.50D-01
  Occupation of active orbitals, and spin coupling
  of open shells. (u,d: Spin up or down).
  SGUGA info is (Midvert:IsyUp:UpperWalk/LowerWalk)
        Conf  SGUGA info        Occupation    Coefficient         Weight
           5  ( 2:1:   2/   2)   u20d           -0.999996       0.999992

  The CI coefficients for the MIXED state nr.   6
--------------------------------------------------------------------------------
 CI COEFFICIENTS LARGER THAN  0.50D-01
  Occupation of active orbitals, and spin coupling
  of open shells. (u,d: Spin up or down).
  SGUGA info is (Midvert:IsyUp:UpperWalk/LowerWalk)
        Conf  SGUGA info        Occupation    Coefficient         Weight
          15  ( 4:1:   1/   1)   uudd           -1.000000       0.999999

  The CI coefficients for the MIXED state nr.   7
--------------------------------------------------------------------------------
 CI COEFFICIENTS LARGER THAN  0.50D-01
  Occupation of active orbitals, and spin coupling
  of open shells. (u,d: Spin up or down).
  SGUGA info is (Midvert:IsyUp:UpperWalk/LowerWalk)
        Conf  SGUGA info        Occupation    Coefficient         Weight
           6  ( 3:1:   1/   1)   2020           -0.692584       0.479672
           8  ( 3:1:   3/   1)   2002            0.140869       0.019844
          12  ( 3:1:   1/   3)   0220            0.693254       0.480601
          14  ( 3:1:   3/   3)   0202           -0.141005       0.019882

  The CI coefficients for the MIXED state nr.   8
--------------------------------------------------------------------------------
 CI COEFFICIENTS LARGER THAN  0.50D-01
  Occupation of active orbitals, and spin coupling
  of open shells. (u,d: Spin up or down).
  SGUGA info is (Midvert:IsyUp:UpperWalk/LowerWalk)
        Conf  SGUGA info        Occupation    Coefficient         Weight
           9  ( 3:1:   1/   2)   ud20            0.979935       0.960273
          11  ( 3:1:   3/   2)   ud02           -0.199315       0.039727

  The CI coefficients for the MIXED state nr.   9
--------------------------------------------------------------------------------
 CI COEFFICIENTS LARGER THAN  0.50D-01
  Occupation of active orbitals, and spin coupling
  of open shells. (u,d: Spin up or down).
  SGUGA info is (Midvert:IsyUp:UpperWalk/LowerWalk)
        Conf  SGUGA info        Occupation    Coefficient         Weight
           6  ( 3:1:   1/   1)   2020            0.693231       0.480569
           8  ( 3:1:   3/   1)   2002           -0.141067       0.019900
          12  ( 3:1:   1/   3)   0220            0.692561       0.479641
          14  ( 3:1:   3/   3)   0202           -0.140931       0.019861

  The CI coefficients for the MIXED state nr.  10
--------------------------------------------------------------------------------
 CI COEFFICIENTS LARGER THAN  0.50D-01
  Occupation of active orbitals, and spin coupling
  of open shells. (u,d: Spin up or down).
  SGUGA info is (Midvert:IsyUp:UpperWalk/LowerWalk)
        Conf  SGUGA info        Occupation    Coefficient         Weight
           7  ( 3:1:   2/   1)   20ud           -0.707109       0.500003
          13  ( 3:1:   2/   3)   02ud            0.707104       0.499996

--

--- Stop Module: caspt2 at Tue Aug  4 16:25:00 2020 /rc=_RC_ALL_IS_WELL_ ---
*** files: xmldump
    saved to directory /home/gayverjr/OpenCAP/molcas_tests/carts
--- Module caspt2 spent 18 seconds ---

*** symbolic link created: INPORB -> cart_test.RasOrb
--- Start Module: rassi at Tue Aug  4 16:25:00 2020 ---

()()()()()()()()()()()()()()()()()()()()()()()()()()()()()()()()()()()()()()()()()()()()()()()()()()

                                               &RASSI

                                   only a single process is used
                       available to each process: 20 GB of memory, 16 threads
                                             pid: 13278
()()()()()()()()()()()()()()()()()()()()()()()()()()()()()()()()()()()()()()()()()()()()()()()()()()


      ********************************************************************************
      *                                                                              *
      *                             General data section                             *
      *                                                                              *
      ********************************************************************************

   Specific data for JOBIPH file JOBIPH                                                                                                                          
   -------------------------------------

   Header from SEWARD:
                                                                               
        Integrals generated by seward 4.2.0  , Tue Aug  4 16:23:46 2020        

   CASSCF title (first line only):
       (No title given)                                                        

   STATE IRREP:                            1
   SPIN MULTIPLICITY:                      1
   ACTIVE ELECTRONS:                       4
   MAX RAS1 HOLES:                         0
   MAX RAS3 ELECTRONS:                     0
   NR OF CONFIG:                          20

  Info: creating TDMFILE
        estimated file size                 11627 kB
        TDMs in AO format


   The following data are common to all the states:
   ------------------------------------------------
   (note: frozen counts as inactive, deleted as secondary)

      Nr of irreps: 1

                 Total     No./Irrep 
      Irrep                  1
                             a

      INACTIVE       3       3
      ACTIVE         4       4
      SECONDARY     98      98
      BASIS        105     105

      RAS1           0       0
      RAS2           4       4
      RAS3           0       0

        MATRIX ELEMENTS WILL BE COMPUTED FOR THE FOLLOWING ONE-ELECTRON OPERATORS, UNLESS ZERO BY SYMMETRY.
   (Herm=Hermitian, Anti=Antihermitian, Sing=Singlet operator, Trip=Triplet operator)
     MLTPL  0   1 (HERMSING)     MLTPL  1   1 (HERMSING)     MLTPL  1   2 (HERMSING)
     MLTPL  1   3 (HERMSING)     MLTPL  2   1 (HERMSING)     MLTPL  2   2 (HERMSING)
     MLTPL  2   3 (HERMSING)     MLTPL  2   4 (HERMSING)     MLTPL  2   5 (HERMSING)
     MLTPL  2   6 (HERMSING)     VELOCITY   1 (ANTISING)     VELOCITY   2 (ANTISING)
     VELOCITY   3 (ANTISING)     ANGMOM     1 (ANTISING)     ANGMOM     2 (ANTISING)
     ANGMOM     3 (ANTISING)     MLTPV  2   1 (ANTISING)     MLTPV  2   2 (ANTISING)
     MLTPV  2   3 (ANTISING)     MLTPV  2   4 (ANTISING)     MLTPV  2   5 (ANTISING)
     MLTPV  2   6 (ANTISING)

       EIGENSTATES OF A SPIN-FREE HAMILTONIAN WILL BE COMPUTED BASED ON:

  a (effective) Hamiltonian matrix that was read from the wavefunction file(s).
  SO coupling elements will be added.
       EIGENSTATES OF SPIN-ORBIT HAMILTONIAN WILL BE COMPUTED
        MATRIX ELEMENTS OVER SPIN EIGENSTATES FOR:
     MLTPL  0   1 (HERMSING)     MLTPL  1   1 (HERMSING)     MLTPL  1   2 (HERMSING)
     MLTPL  1   3 (HERMSING)     MLTPL  2   1 (HERMSING)     MLTPL  2   2 (HERMSING)
     MLTPL  2   3 (HERMSING)     MLTPL  2   4 (HERMSING)     MLTPL  2   5 (HERMSING)
     MLTPL  2   6 (HERMSING)     VELOCITY   1 (ANTISING)     VELOCITY   2 (ANTISING)
     VELOCITY   3 (ANTISING)     ANGMOM     1 (ANTISING)     ANGMOM     2 (ANTISING)
     ANGMOM     3 (ANTISING)     MLTPV  2   1 (ANTISING)     MLTPV  2   2 (ANTISING)
     MLTPV  2   3 (ANTISING)     MLTPV  2   4 (ANTISING)     MLTPV  2   5 (ANTISING)
     MLTPV  2   6 (ANTISING)

  Nr of states:                   10

   State:        1   2   3   4   5   6   7   8   9  10
  JobIph:        1   1   1   1   1   1   1   1   1   1
 Root nr:        1   2   3   4   5   6   7   8   9  10

  HAMILTONIAN MATRIX FOR THE ORIGINAL STATES:

  Diagonal, with energies
   -128.88981344   -128.20189991   -128.20189988   -128.11929209   -128.11963156
   -127.19667207   -127.17692641   -127.17651828   -127.08744353   -127.00235523

      OVERLAP MATRIX FOR THE ORIGINAL STATES:

  Diagonal, with elements
      1.00000000      1.00000000      1.00000000      1.00000000      1.00000000
      1.00000000      1.00000000      1.00000000      1.00000000      1.00000000

::    RASSI State    1     Total energy:   -128.88981344
::    RASSI State    2     Total energy:   -128.20189991
::    RASSI State    3     Total energy:   -128.20189988
::    RASSI State    4     Total energy:   -128.11929209
::    RASSI State    5     Total energy:   -128.11963156
::    RASSI State    6     Total energy:   -127.19667207
::    RASSI State    7     Total energy:   -127.17692641
::    RASSI State    8     Total energy:   -127.17651828
::    RASSI State    9     Total energy:   -127.08744353
::    RASSI State   10     Total energy:   -127.00235523



      ****************************************************************************************************
      *                                                                                                  *
      *                                         Spin-free section                                        *
      *                                                                                                  *
      *                 Note: index according to input order, order according to energy.                 *
      *                                                                                                  *
      ****************************************************************************************************



  SPIN-FREE ENERGIES:
  (Shifted by EMIN (a.u.) =       -128.8898134424)

 SF State       Relative EMIN(au)   Rel lowest level(eV)    D:o, cm**(-1)      L_eff

     1             0.0000000000        0.0000000000              0.0000         0.0
     2             0.6879135302       18.7190807739         150979.5684         0.6
     3             0.6879135608       18.7190816059         150979.5752         0.6
     5             0.7701818850       20.9577167515         169035.3853         0.6
     4             0.7705213523       20.9669541273         169109.8897         0.6
     6             1.6931413677       46.0727237266         371601.5775         0.0
     7             1.7128870354       46.6100307150         375935.2507         1.6
     8             1.7132951642       46.6211364664         376024.8246         1.6
     9             1.8023699080       49.0449837245         395574.4711         0.0
    10             1.8874582140       51.3603544853         414249.1957         0.0

++ Dipole transition strengths (spin-free states):
   -----------------------------------------------
     for osc. strength at least  1.00000000E-05

      From   To        Osc. strength     Einstein coefficients Ax, Ay, Az (sec-1)    Total A (sec-1)
     -----------------------------------------------------------------------------------------------
         1    2       3.37006665E-02  4.69944340E+06  3.04130950E+07  4.77296848E+08  5.12409387E+08
         1    3       3.37012107E-02  1.46712236E+07  4.63909187E+08  3.38372966E+07  5.12417707E+08
         2    4       2.14686663E-01  4.52827455E+07  1.67236266E+06  1.16419563E+05  4.70715278E+07
         2    7       2.43324263E-02  7.52355053E+06  4.86348239E+07  7.65178989E+08  8.21337364E+08
         2    8       2.43426760E-02  2.36593723E+07  7.44490333E+08  5.41881290E+07  8.22337835E+08
         2    9       2.69491632E-02  9.86149952E+06  6.38309115E+07  1.00173801E+09  1.07543042E+09
         3    5       2.13804352E-01  4.47268444E+07  1.65170977E+06  1.14997913E+05  4.64935521E+07
         3    7       2.43331623E-02  2.36312621E+07  7.43607059E+08  5.41238336E+07  8.21362155E+08
         3    8       2.43422904E-02  7.53259483E+06  4.86932921E+07  7.66098872E+08  8.22324759E+08
         3    9       2.69492055E-02  3.09397461E+07  9.73465124E+08  7.10271773E+07  1.07543205E+09
         5    6       3.40439844E-02  8.55096511E+06  5.53969291E+07  8.67838875E+08  9.31786770E+08
         5   10       1.37374834E-02  1.58631834E+07  4.98871445E+08  3.62497190E+07  5.50984348E+08
         4    6       3.40319969E-02  2.67512696E+07  8.42452473E+08  6.15698656E+07  9.30773609E+08
         4   10       1.37328863E-02  5.03844990E+06  3.25411912E+07  5.12885668E+08  5.50465310E+08
         7   10       5.52930481E-01  5.20835722E+08  1.92355520E+07  1.33901436E+06  5.41410288E+08
     -----------------------------------------------------------------------------------------------
--

++ Velocity transition strengths (spin-free states):
   -------------------------------------------------
     for osc. strength at least  1.00000000E-05

      From   To        Osc. strength     Einstein coefficients Ax, Ay, Az (sec-1)    Total A (sec-1)
     -----------------------------------------------------------------------------------------------
         1    2       8.52196242E-02  1.18814944E+07  7.69072911E+07  1.20695222E+09  1.29574100E+09
         1    3       8.52196428E-02  3.72986748E+07  1.17286357E+09  8.55791560E+07  1.29574140E+09
         2    4       4.93058074E-01  1.03997851E+08  3.84119267E+06  2.67331232E+05  1.08106375E+08
         2    7       2.72128217E-02  8.41408603E+06  5.43920986E+07  8.55758489E+08  9.18564673E+08
         2    8       2.72021889E-02  2.64462898E+07  8.31936700E+08  6.05541494E+07  9.18937139E+08
         2    9       2.45632029E-02  8.98841745E+06  5.81795971E+07  9.13048529E+08  9.80216544E+08
         3    5       4.95092796E-01  1.03568272E+08  3.82773528E+06  2.66078798E+05  1.07662087E+08
         3    7       2.72132129E-02  2.64359525E+07  8.31611398E+08  6.05304724E+07  9.18577823E+08
         3    8       2.72021828E-02  8.41749550E+06  5.44141386E+07  8.56105245E+08  9.18936879E+08
         3    9       2.45628545E-02  2.81992868E+07  8.87265630E+08  6.47376665E+07  9.80202584E+08
         5    6       4.74574699E-02  1.19197577E+07  7.72237300E+07  1.20977153E+09  1.29891501E+09
         5   10       1.30679863E-02  1.50889130E+07  4.74560180E+08  3.44829953E+07  5.24132088E+08
         4    6       4.74749377E-02  3.73499766E+07  1.17519452E+09  8.58929524E+07  1.29843745E+09
         4   10       1.30717608E-02  4.79590581E+06  3.09745935E+07  4.88194436E+08  5.23964935E+08
         7   10       6.48920105E-01  6.11253512E+08  2.25750176E+07  1.57145814E+06  6.35399988E+08
     -----------------------------------------------------------------------------------------------
--

++ Length and velocity gauge comparison (spin-free states):
   --------------------------------------------------------

 --------------------------------------------------
 A comparison between the dipole oscillator strengths in 
 length and velocity gauge will be performed

 All dipole oscillator differences above the tolerance of   0.10000000000000001       will be printed 

 Due to basis set deficiency these oscillator may be problematic 

 The tolerance is defined as ABS(1-O_l/O_v) 
 O_l : dipole oscillator strength in length gauge
 O_p : dipole oscillator strength in velocity gauge
 --------------------------------------------------

  Problematic transitions have been found

      From   To       Difference (%) Osc. st. (len.) Osc. st. (vel.)
     ---------------------------------------------------------------
         1    2            60.454336  3.37006665E-02  8.52196242E-02
         1    3            60.453706  3.37012107E-02  8.52196428E-02
         2    4            56.458139  2.14686663E-01  4.93058074E-01
         2    7            10.584699  2.43324263E-02  2.72128217E-02
         2    8            10.512069  2.43426760E-02  2.72021889E-02
         3    5            56.815297  2.13804352E-01  4.95092796E-01
         3    7            10.583281  2.43331623E-02  2.72132129E-02
         3    8            10.513466  2.43422904E-02  2.72021828E-02
         5    6            28.264224  3.40439844E-02  4.74574699E-02
         4    6            28.315868  3.40319969E-02  4.74749377E-02
         7   10            14.792210  5.52930481E-01  6.48920105E-01
     ---------------------------------------------------------------

 Number of problematic transitions =                    11

--

 Electric-dipole - electric-octupole not included
 Electric-dipole - magnetic-quadrupole not included


      ****************************************************************************************************
      *                                                                                                  *
      *                                    Special properties section                                    *
      *                                                                                                  *
      ****************************************************************************************************


++ I/O STATISTICS
 
  I. General I/O information
  - - - - - - - - - - - - - - - - - - - - - - - - - - - - - - - - - - - - - - - - - - -
  Unit  Name          Flsize      Write/Read            MBytes           Write/Read
                      (MBytes)       Calls              In/Out           Time, sec.
  - - - - - - - - - - - - - - - - - - - - - - - - - - - - - - - - - - - - - - - - - - -
   1  SCRATCH           0.00 .      10/      55 .      0.0/      0.0 .       0/       0
   2  ANNI              0.00 .       0/       0 .      0.0/      0.0 .       0/       0
   3  RUNFILE          13.57 .     182/    3450 .      1.3/     25.0 .       0/       0
   4  ONEINT            2.64 .       0/    9782 .      0.0/   3379.4 .       0/       0
   5  JOBIPH            3.07 .       0/      98 .      0.0/      1.4 .       0/       0
   6  TDMFILE           9.29 .     110/     110 .      9.3/      9.3 .       0/       0
  - - - - - - - - - - - - - - - - - - - - - - - - - - - - - - - - - - - - - - - - - - -
   *  TOTAL            28.57 .     302/   13495 .     10.5/   3415.0 .       0/       0
  - - - - - - - - - - - - - - - - - - - - - - - - - - - - - - - - - - - - - - - - - - -
 
  II. I/O Access Patterns
  - - - - - - - - - - - - - - - - - - - -
  Unit  Name               % of random
                         Write/Read calls
  - - - - - - - - - - - - - - - - - - - -
   1  SCRATCH             90.0/ 100.0
   2  ANNI                 0.0/   0.0
   3  RUNFILE             28.6/  10.9
   4  ONEINT               0.0/  37.1
   5  JOBIPH               0.0/  75.5
   6  TDMFILE             99.1/ 100.0
  - - - - - - - - - - - - - - - - - - - -
--
--- Stop Module: rassi at Tue Aug  4 16:25:02 2020 /rc=_RC_ALL_IS_WELL_ ---
*** files: cart_test.rassi.h5 xmldump
    saved to directory /home/gayverjr/OpenCAP/molcas_tests/carts
--- Module rassi spent 1 second ---

.##################.
.# Happy landing! #.
.##################.

    Timing: Wall=76.94 User=662.04 System=69.85
