*******************************************************
*** WorkDir is not cleaned in parallel environment! ***
*******************************************************
   This run of MOLCAS is using the pymolcas driver

                             OPE
                             OPE          NMOL  CASOP  ENMOLC A   SO
                 OPE        NMOLC        AS  OP EN  MO LC     AS  OP
                OPENM       OL CA        SO  PE NM  OL CA     SOP EN
                OP EN      MO   LC       AS  OP ENMOL  CASO   PENMOL
                OP  EN     MO   LC       AS  OP EN     MO     LC ASO
               OP   E  NMOL  C  AS       OP  EN MO     LC     AS  OP
               OP  E   NMO   LC AS        OPEN  MO     LCASOP EN   M
               O  PEN   MO  LCA  SO
            OPE   NMO   L   CAS    OP
        OPENMOL  CASOP     ENMOL   CASOPE
     OPENMOLCA   SOPENMOLCASOPEN   MOLCASOPE
    OPENMOLCAS   OP           EN   MOL    CAS
    OPENMOLCAS       OP  ENM        O     LCA
    OPENMOLCAS    OPEN  MOLCASO     P  E  NMO
    OPENMOLCAS     OP               E  N  MOL
    OPENMOLCA   SO           PENM   O  L  CAS    OPEN    MO    LCAS
    OPENMOLCA   SOP           ENM   O  L  CAS   OP  EN  MOLC  AS   O
    OPENMOLCA   SOPE           NM      O  LCA   S      OP  EN MO
    OPENMOLC                AS         O  PEN   M      OL  CA  SOPE
    OPENMO        LCASOPE  NMOL        C  ASO   P      ENMOLC     AS
    OPE     NMO      LCA  SO     P     E   NM   OL  CA SO  PE N   MO
          OPENMOLCA            SOPE   NMO        LCAS  O    P  ENMO
     OPENMOLCASOPENMOLCASOPENMOLCASOPENMOLCA
        OPENMOLCASOPENMOLCASOPENMOLCASOPE
            OPENMOLCASOPENMOLCASOPENM
               OPENMOLCASOPENMOLCA        version: 21.02
                   OPENMOLCASO
                       OPE                tag: 957-gb1e1fa9

 OpenMolcas is free software; you can redistribute it and/or modify it
 under the terms of the GNU Lesser General Public License version 2.1.
 OpenMolcas is distributed in the hope that it will be useful, but it
 is provided "as is" and without any express or implied warranties.
 For more details see the full text of the license in the file
 LICENSE or in <http://www.gnu.org/licenses/>.

                 Copyright (C) The OpenMolcas Authors
           For the author list and the recommended citation,
                   consult the file CONTRIBUTORS.md

           *************************************************
           * pymolcas version py2.18                       *
           *   build 7a16d2f9e823a0c2ad601740b42a4b0e      *
           *   (after the EMIL interpreter by V. Veryazov) *
           *************************************************

configuration info
------------------
Host name: dirac.bu.edu (Linux)
C Compiler ID: GNU
C flags: -std=gnu99 -fopenmp
Fortran Compiler ID: GNU
Fortran flags: -fno-aggressive-loop-optimizations -cpp -fdefault-integer-8 -fopenmp
Definitions: _MOLCAS_;_I8_;_LINUX_;_DMRG_
Parallel: OFF (GA=OFF)


   ----------------------------------------------------------------------
  |
  |             Project: cart
  |      Submitted from: /scratch/gayverjr/cart.2096637478
  |        Scratch area: /scratch/gayverjr/cart.2096637478
  |     Save outputs to: /home/gayverjr/opencap_tests/openmolcas
  |              Molcas: /home/qcsoftware/OpenMolcas/qcmaquis_build/build
  |
  | Scratch area is NOT empty
  |
  |      MOLCAS_DRIVER = /home/qcsoftware/bin/pymolcas
  | MOLCAS_NEW_WORKDIR = YES
  |      MOLCAS_NPROCS = 16
  |      MOLCAS_SOURCE = /home/qcsoftware/OpenMolcas/Molcas_src
  |   MOLCAS_STRUCTURE = 0
  |
   ----------------------------------------------------------------------

++ ---------   Input file   ---------

&GATEWAY
Coord
2
Angstrom
N 0.0000000000 0.0000000000 0.55
N 0.0000000000 0.0000000000 -0.55
Basis = 6-311G**

&SEWARD

&SCF

&RASSCF
Inactive = 3 0 0 0 2 0 0 0
Ras2= 0 1 1 0 0 1 1 0
NActEl=4,0,0
CIROOT=4 4 1

&RASSI
TRD1

&CASPT2
MULtistate = all

-- ----------------------------------

--- Start Module: gateway at Fri May 28 20:24:11 2021 ---

()()()()()()()()()()()()()()()()()()()()()()()()()()()()()()()()()()()()()()()()()()()()()()()()()()

                                              &GATEWAY

                                   only a single process is used
                       available to each process: 20 GB of memory, 16 threads
                                             pid: 20111
()()()()()()()()()()()()()()()()()()()()()()()()()()()()()()()()()()()()()()()()()()()()()()()()()()

      Found SYMMETRY generators: x y z

++    Symmetry information:
      ---------------------

                    --- Group Generators ---
                    Reflection in the yz-plane  
                    Reflection in the xz-plane  
                    Reflection in the xy-plane  

                    Character Table for D2h

                             E   s(yz) s(xz) C2(z) s(xy) C2(y) C2(x)   i  
                    ag       1     1     1     1     1     1     1     1  
                    b3u      1    -1     1    -1     1    -1     1    -1  x
                    b2u      1     1    -1    -1     1     1    -1    -1  y
                    b1g      1    -1    -1     1     1    -1    -1     1  xy, Rz
                    b1u      1     1     1     1    -1    -1    -1    -1  z
                    b2g      1    -1     1    -1    -1     1    -1     1  xz, Ry
                    b3g      1     1    -1    -1    -1    -1     1     1  yz, Rx
                    au       1    -1    -1     1    -1     1     1    -1  I
--


++    Basis set information:
      ----------------------


      Basis set label: N.6-311G**.........

      Electronic valence basis set:
      ------------------
      Associated Effective Charge   7.000000 au
      Associated Actual Charge      7.000000 au
      Nuclear Model: Point charge

      Shell  nPrim  nBasis  Cartesian Spherical Contaminant
         s      11       4        X                  
         p       5       3        X                  
         d       1       1        X                  
--


++    Molecular structure info:
      -------------------------

                    ************************************************ 
                    **** Cartesian Coordinates / Bohr, Angstrom **** 
                    ************************************************ 

     Center  Label                x              y              z                     x              y              z
        1      N1               0.000000       0.000000       1.039349              0.000000       0.000000       0.550000
        2      N1               0.000000       0.000000      -1.039349              0.000000       0.000000      -0.550000
--


            Nuclear Potential Energy             23.57243939 au

--- Stop Module: gateway at Fri May 28 20:24:11 2021 /rc=_RC_ALL_IS_WELL_ ---
*** files: xmldump
    saved to directory /home/gayverjr/opencap_tests/openmolcas

--- Start Module: seward at Fri May 28 20:24:11 2021 ---

()()()()()()()()()()()()()()()()()()()()()()()()()()()()()()()()()()()()()()()()()()()()()()()()()()

                                              &SEWARD

                                   only a single process is used
                       available to each process: 20 GB of memory, 16 threads
                                             pid: 20132
()()()()()()()()()()()()()()()()()()()()()()()()()()()()()()()()()()()()()()()()()()()()()()()()()()

               SEWARD will generate:
                  Multipole Moment integrals up to order  2
                  Kinetic Energy integrals
                  Nuclear Attraction integrals (point charge)
                  One-Electron Hamiltonian integrals
                  Velocity integrals
                  Orbital angular momentum around ( 0.0000  0.0000  0.0000 )
                  Velocity quadrupole around ( 0.0000  0.0000  0.0000 )
                  Two-Electron Repulsion integrals

                   Integrals are discarded if absolute value <: 0.10E-13
                   Integral cutoff threshold is set to       <: 0.10E-15

                    Unitary symmetry adaptation


            Nuclear Potential Energy             23.57243939 au


      Basis set specifications :
      Symmetry species         ag   b3u  b2u  b1g  b1u  b2g  b3g  au 
      Basis functions           10    4    4    1   10    4    4    1


  Input file to MOLDEN was generated!

--- Stop Module: seward at Fri May 28 20:24:13 2021 /rc=_RC_ALL_IS_WELL_ ---
*** files: cart.GssOrb cart.guessorb.h5 cart.guessorb.molden xmldump
    saved to directory /home/gayverjr/opencap_tests/openmolcas
--- Module seward spent 1 second ---

*** symbolic link created: INPORB -> cart.GssOrb
--- Start Module: scf at Fri May 28 20:24:13 2021 ---

()()()()()()()()()()()()()()()()()()()()()()()()()()()()()()()()()()()()()()()()()()()()()()()()()()

                                                &SCF

                                   only a single process is used
                       available to each process: 20 GB of memory, 16 threads
                                             pid: 20159
()()()()()()()()()()()()()()()()()()()()()()()()()()()()()()()()()()()()()()()()()()()()()()()()()()

++    Input section:
      --------------

      Header of the integral files:
      
       Integrals generated by Gateway/Seward, Fri May 28 20:24:12 2021


      Cartesian coordinates in Angstrom:
      -----------------------------------------------------
      No.  Label        X            Y            Z        
      -----------------------------------------------------
       1   N1         0.00000000   0.00000000   0.55000000
       2   N1         0.00000000   0.00000000  -0.55000000
      -----------------------------------------------------
      Nuclear repulsion energy =   23.57243939
--

++    Orbital specifications:
      -----------------------

      Symmetry species               1   2   3   4   5   6   7   8
                                    ag b3u b2u b1g b1u b2g b3g  au
      Frozen orbitals                0   0   0   0   0   0   0   0
      Occupied orbitals              3   1   1   0   2   0   0   0
      Secondary orbitals             7   3   3   1   8   4   4   1
      Deleted orbitals               0   0   0   0   0   0   0   0
      Total number of orbitals      10   4   4   1  10   4   4   1
      Number of basis functions     10   4   4   1  10   4   4   1
--

      Molecular charge                           0.000

++    Optimization specifications:
      ----------------------------

      SCF Algorithm: Conventional
      Minimized density differences are used
      Number of density matrices in core                5
      Maximum number of NDDO SCF iterations           400
      Maximum number of HF SCF iterations             400
      Threshold for SCF energy change            0.10E-08
      Threshold for density matrix               0.10E-03
      Threshold for Fock matrix                  0.15E-03
      Threshold for linear dependence            0.10E-08
      Threshold at which DIIS is turned on       0.15E+00
      Threshold at which QNR/C2DIIS is turned on 0.75E-01
      Threshold for Norm(delta) (QNR/C2DIIS)     0.20E-04
      DIIS extrapolation of the SCF procedure
      All orbitals punched on: SCFORB
--

      Input vectors read from INPORB
      Orbital file label: *Guess orbitals


++ Convergence information
                                   SCF        iterations: Energy and convergence statistics

Iter     Tot. SCF        One-elec.       Two-elec.     Energy      Max Dij or  Max Fij      DNorm      TNorm      AccCon     Time
         Energy          Energy          Energy        Change      Delta Norm                                                in Sec.
   1  -108.736105587  -192.677709013    60.369164031   0.00E+00    0.24E+00*   0.22E+00*    0.35E+01   0.93E+02   None         0.
   2  -108.960336940  -194.663936875    62.131160540  -0.22E+00*   0.51E-01*   0.34E-01*    0.10E+01   0.94E+02   EDIIS        0.
   3  -108.968590071  -194.023524445    61.482494980  -0.83E-02*   0.14E-01*   0.13E-01*    0.19E+00   0.94E+02   EDIIS        0.
   4  -108.969107023  -194.180382995    61.638836578  -0.52E-03*   0.34E-02*   0.23E-02*    0.30E-01   0.94E+02   c2DIIS       0.
   5  -108.969143927  -194.139989936    61.598406614  -0.37E-04*   0.84E-03*   0.77E-03*    0.36E-02   0.94E+02   QNRc2DIIS    0.
   6  -108.969146623  -194.146800367    61.605214349  -0.27E-05*   0.31E-03*   0.17E-03*    0.52E-03   0.94E+02   QNRc2DIIS    0.
   7  -108.969146863  -194.145120227    61.603533969  -0.24E-06*   0.95E-05    0.99E-05     0.31E-04   0.94E+02   QNRc2DIIS    0.
   8  -108.969146864  -194.145192193    61.603605935  -0.40E-09    0.23E-05    0.22E-05     0.11E-04   0.94E+02   QNRc2DIIS    0.

       Convergence after  8 Macro Iterations
--

 *****************************************************************************************************************************
 *                                                                                                                           *
 *                                             SCF/KS-DFT Program, Final results                                             *
 *                                                                                                                           *
 *                                                                                                                           *
 *                                                                                                                           *
 *                                                       Final Results                                                       *
 *                                                                                                                           *
 *****************************************************************************************************************************

::    Total SCF energy                               -108.9691468637
      One-electron energy                            -194.1451921932
      Two-electron energy                              61.6036059347
      Nuclear repulsion energy                         23.5724393948
      Kinetic energy (interpolated)                   108.7564774371
      Virial theorem                                    1.0019554645
      Total spin, S(S+1)                                0.0000000000
      Total spin, S                                     0.0000000000
      Max non-diagonal density matrix element           0.0000025262
      Max non-diagonal Fock matrix element              0.0000005523


      All orbitals with orbital energies smaller than  E(LUMO)+0.5 are printed

++    Molecular orbitals:
      -------------------

      Title: SCF orbitals

      Molecular orbitals for symmetry species 1: ag 

          Orbital            1         2         3    
          Energy          -15.6838   -1.4723   -0.6319
          Occ. No.          2.0000    2.0000    2.0000

        1 N1     1s         0.5576    0.1234   -0.0400
        2 N1     2s         0.4679    0.2014   -0.0690
        3 N1     *s         0.0052   -0.5483    0.1814
        4 N1     *s         0.0003   -0.2232    0.4435
        5 N1     2pz       -0.0024    0.1463    0.2990
        6 N1     *pz        0.0001    0.2034    0.4372
        7 N1     *pz       -0.0003    0.0399    0.2660
        8 N1     *200      -0.0004    0.0094    0.0079
        9 N1     *020      -0.0004    0.0094    0.0079
       10 N1     *002       0.0002   -0.0253   -0.0232

      Molecular orbitals for symmetry species 2: b3u

          Orbital            1    
          Energy           -0.6116
          Occ. No.          2.0000

        1 N1     2px        0.2688
        2 N1     *px        0.4363
        3 N1     *px        0.3228
        4 N1     *101      -0.0643

      Molecular orbitals for symmetry species 3: b2u

          Orbital            1    
          Energy           -0.6116
          Occ. No.          2.0000

        1 N1     2py        0.2688
        2 N1     *py        0.4363
        3 N1     *py        0.3228
        4 N1     *011      -0.0643

      Molecular orbitals for symmetry species 5: b1u

          Orbital            1         2         3    
          Energy          -15.6803   -0.7776    0.5546
          Occ. No.          2.0000    2.0000    0.0000

        1 N1     1s         0.5579   -0.1130    0.0688
        2 N1     2s         0.4684   -0.1911    0.1208
        3 N1     *s         0.0039    0.5543   -0.3029
        4 N1     *s         0.0008    0.6307   -6.0000
        5 N1     2pz       -0.0019    0.1380    0.0478
        6 N1     *pz        0.0021    0.2105   -0.1190
        7 N1     *pz       -0.0005    0.1008    3.9026
        8 N1     *200      -0.0003    0.0037   -0.0035
        9 N1     *020      -0.0003    0.0037   -0.0035
       10 N1     *002      -0.0005   -0.0077    0.0179

      Molecular orbitals for symmetry species 6: b2g

          Orbital            1    
          Energy            0.1648
          Occ. No.          0.0000

        1 N1     2px        0.2809
        2 N1     *px        0.4056
        3 N1     *px        0.9805
        4 N1     *101       0.0236

      Molecular orbitals for symmetry species 7: b3g

          Orbital            1    
          Energy            0.1648
          Occ. No.          0.0000

        1 N1     2py        0.2809
        2 N1     *py        0.4056
        3 N1     *py        0.9805
        4 N1     *011       0.0236
--


++    Molecular charges:
      ------------------

      Mulliken charges per centre and basis function type
      ---------------------------------------------------

                N1    
      1s       1.0954
      2s       0.8989
      2px      0.1816
      2pz      0.3218
      2py      0.1816
      *s       1.7984
      *020    -0.0032
      *002     0.0290
      *200    -0.0032
      *px      0.7980
      *101     0.0204
      *pz      0.8630
      *py      0.7980
      *011     0.0204
      *110     0.0000
      Total    7.0000

      N-E     -0.0000

      Total electronic charge=   14.000000

      Total            charge=   -0.000000
--


++    Molecular properties:
      ---------------------

      Charge (e):
                      =   -0.0000
      Dipole Moment (Debye):
      Origin of the operator (Ang)=    0.0000    0.0000    0.0000
                   X=  0.0000E+00               Y=  0.0000E+00               Z=  0.0000E+00           Total=  0.0000E+00
      Quadrupole Moment (Debye*Ang):
      Origin of the operator (Ang)=    0.0000    0.0000    0.0000
                  XX= -1.0249E+01              XY=  0.0000E+00              XZ=  0.0000E+00              YY= -1.0249E+01
                  YZ=  0.0000E+00              ZZ= -1.1825E+01
      In traceless form (Debye*Ang)
                  XX=  7.8784E-01              XY=  0.0000E+00              XZ=  0.0000E+00              YY=  7.8784E-01
                  YZ=  0.0000E+00              ZZ= -1.5757E+00
--


  Input file to MOLDEN was generated!

 ###############################################################################
 ###############################################################################
 ###                                                                         ###
 ###                                                                         ###
 ###    WARNING: RunFile label nBas                                          ###
 ###    was used       71 times                                              ###
 ###                                                                         ###
 ###                                                                         ###
 ###############################################################################
 ###############################################################################
--- Stop Module: scf at Fri May 28 20:24:14 2021 /rc=_RC_ALL_IS_WELL_ ---
*** files: cart.scf.molden cart.ScfOrb cart.scf.h5 xmldump
    saved to directory /home/gayverjr/opencap_tests/openmolcas

*** symbolic link created: INPORB -> cart.ScfOrb
--- Start Module: rasscf at Fri May 28 20:24:14 2021 ---

()()()()()()()()()()()()()()()()()()()()()()()()()()()()()()()()()()()()()()()()()()()()()()()()()()

                                              &RASSCF

                                   only a single process is used
                       available to each process: 20 GB of memory, 16 threads
                                             pid: 20198
()()()()()()()()()()()()()()()()()()()()()()()()()()()()()()()()()()()()()()()()()()()()()()()()()()


      Header of the ONEINT file:
      --------------------------
      
      Integrals generated by Gateway/Seward, Fri May 28 20:24:12 2021


      OrdInt status: non-squared


      Cartesian coordinates in Angstrom:
      -----------------------------------------------------
      No.  Label        X            Y            Z        
      -----------------------------------------------------
       1   N1         0.00000000   0.00000000   0.55000000
       2   N1         0.00000000   0.00000000  -0.55000000
      -----------------------------------------------------
      Nuclear repulsion energy =   23.57243939

++    Wave function specifications:
      -----------------------------

      Number of closed shell electrons          10
      Number of electrons in active shells       4
      Max number of holes in RAS1 space          0
      Max nr of electrons in RAS3 space          0
      Number of inactive orbitals                5
      Number of active orbitals                  4
      Number of secondary orbitals              29
      Spin quantum number                      0.0
      State symmetry                             1
--

++    Orbital specifications:
      -----------------------

      Symmetry species                           1   2   3   4   5   6   7   8
                                                ag b3u b2u b1g b1u b2g b3g  au
      Frozen orbitals                            0   0   0   0   0   0   0   0
      Inactive orbitals                          3   0   0   0   2   0   0   0
      Active orbitals                            0   1   1   0   0   1   1   0
      RAS1 orbitals                              0   0   0   0   0   0   0   0
      RAS2 orbitals                              0   1   1   0   0   1   1   0
      RAS3 orbitals                              0   0   0   0   0   0   0   0
      Secondary orbitals                         7   3   3   1   8   3   3   1
      Deleted orbitals                           0   0   0   0   0   0   0   0
      Number of basis functions                 10   4   4   1  10   4   4   1
--

++    CI expansion specifications:
      ----------------------------

      Number of CSFs                             8
      Number of determinants                     9
      Number of root(s) required                 4
      Root chosen for geometry opt.              4
      CI roots used                              1     2     3     4
      weights                                0.250 0.250 0.250 0.250
      highest root included in the CI            4
      max. size of the explicit Hamiltonian      8
--

++    Optimization specifications:
      ----------------------------

      RASSCF algorithm: Conventional
      Maximum number of macro iterations       200
      Maximum number of SX iterations          100
      Threshold for RASSCF energy            0.100E-07
      Threshold for max MO rotation          0.100E+00
      Threshold for max BLB element          0.100E-03
      Level shift parameter                  0.500E+00
      Make Quasi-Newton update
--

      Orbitals from runfile: scf orbitals
      The MO-coefficients are taken from scf orbitals on runfile

      Total molecular charge    0.00

      ************************************************************************************************************************
      *                                                                                                                      *
      *                                            Wave function control section                                             *
      *                                                                                                                      *
      ************************************************************************************************************************


                                         RASSCF iterations: Energy and convergence statistics
                                         ----------------------------------------------------

      Iter CI   SX   CI       RASSCF       Energy    max ROT     max BLB   max BLB  Level Ln srch  Step   QN   Walltime
          iter iter root      energy       change     param      element    value   shift minimum  type update hh:mm:ss
 Nr of preliminary CI iterations:   1
        1   1    5    0  -108.47242748    0.00E+00  -0.13E+00*   1   2 7  0.12E+00*  0.00   0.00    SX    NO    0:00:00
        2   1    5    0  -108.51557976   -0.43E-01* -0.21E-01    3   5 1 -0.47E-01*  0.00   0.00    SX    NO    0:00:00
        3   1    4    0  -108.51923123   -0.37E-02* -0.11E-01    1   2 2  0.12E-01*  0.00   0.00    SX    NO    0:00:00
        4   1    4    0  -108.51963198   -0.40E-03*  0.26E-02    3   5 1 -0.68E-02*  0.00   0.00    SX    NO    0:00:00
        5   1    4    0  -108.51968148   -0.50E-04* -0.98E-03    1   2 2  0.17E-02*  0.00   0.82    QN   YES    0:00:00
        6   1    3    0  -108.51968862   -0.71E-05* -0.28E-03    3   5 1 -0.28E-03*  0.00   1.17    QN   YES    0:00:00
        7   1    3    0  -108.51968890   -0.28E-06* -0.17E-04    3   5 1 -0.37E-04   0.00   1.05    QN   YES    0:00:00
        8   1    2    0  -108.51968890   -0.15E-08  -0.17E-05    3   4 1 -0.40E-05   0.00   1.07    QN   YES    0:00:00
      Convergence after  8 iterations
        9   1    2    0  -108.51968890   -0.16E-10  -0.17E-05    3   4 1 -0.70E-06   0.00   1.07    QN   YES    0:00:00

      ************************************************************************************************************************
                                                      Wave function printout:
                       occupation of active orbitals, and spin coupling of open shells (u,d: Spin up or down)
      ************************************************************************************************************************

      Note: transformation to natural orbitals
      has been made, which may change the order of the CSFs.

      printout of CI-coefficients larger than  0.05 for root  1
      energy=    -109.045672
      conf/sym  2 3 6 7     Coeff  Weight
             1  2 2 0 0   0.96582 0.93280
             3  2 0 0 2  -0.14065 0.01978
             4  0 2 2 0  -0.14065 0.01978
             6  u d u d   0.12107 0.01466
             7  u u d d  -0.10022 0.01004

      printout of CI-coefficients larger than  0.05 for root  2
      energy=    -108.421206
      conf/sym  2 3 6 7     Coeff  Weight
             1  2 2 0 0   0.09203 0.00847
             2  2 0 2 0  -0.14237 0.02027
             3  2 0 0 2   0.35439 0.12559
             4  0 2 2 0   0.35439 0.12559
             5  0 2 0 2  -0.14237 0.02027
             6  u d u d  -0.49676 0.24677
             7  u u d d  -0.67177 0.45128

      printout of CI-coefficients larger than  0.05 for root  3
      energy=    -108.351554
      conf/sym  2 3 6 7     Coeff  Weight
             2  2 0 2 0  -0.35355 0.12500
             3  2 0 0 2   0.35355 0.12500
             4  0 2 2 0   0.35355 0.12500
             5  0 2 0 2  -0.35355 0.12500
             6  u d u d   0.70711 0.50000

      printout of CI-coefficients larger than  0.05 for root  4
      energy=    -108.260324
      conf/sym  2 3 6 7     Coeff  Weight
             2  2 0 2 0  -0.70696 0.49979
             5  0 2 0 2   0.70696 0.49979

      Natural orbitals and occupation numbers for root  1
      sym 2:   1.930644
      sym 3:   1.930644
      sym 6:   0.069356
      sym 7:   0.069356

      Natural orbitals and occupation numbers for root  2
      sym 2:   1.006703
      sym 3:   1.006703
      sym 6:   0.993297
      sym 7:   0.993297

      Natural orbitals and occupation numbers for root  3
      sym 2:   1.000000
      sym 3:   1.000000
      sym 6:   1.000000
      sym 7:   1.000000

      Natural orbitals and occupation numbers for root  4
      sym 2:   1.000000
      sym 3:   1.000000
      sym 6:   1.000000
      sym 7:   1.000000

      ************************************************************************************************************************
      *                                                                                                                      *
      *                                                    Final results                                                     *
      *                                                                                                                      *
      ************************************************************************************************************************


++    Wave function specifications:
      -----------------------------

      Number of closed shell electrons          10
      Number of electrons in active shells       4
      Max number of holes in RAS1 space          0
      Max nr of electrons in RAS3 space          0
      Number of inactive orbitals                5
      Number of active orbitals                  4
      Number of secondary orbitals              29
      Spin quantum number                      0.0
      State symmetry                             1
--

++    Orbital specifications:
      -----------------------

      Symmetry species                           1   2   3   4   5   6   7   8
                                                ag b3u b2u b1g b1u b2g b3g  au
      Frozen orbitals                            0   0   0   0   0   0   0   0
      Inactive orbitals                          3   0   0   0   2   0   0   0
      Active orbitals                            0   1   1   0   0   1   1   0
      RAS1 orbitals                              0   0   0   0   0   0   0   0
      RAS2 orbitals                              0   1   1   0   0   1   1   0
      RAS3 orbitals                              0   0   0   0   0   0   0   0
      Secondary orbitals                         7   3   3   1   8   3   3   1
      Deleted orbitals                           0   0   0   0   0   0   0   0
      Number of basis functions                 10   4   4   1  10   4   4   1
--

++    CI expansion specifications:
      ----------------------------

      Number of CSFs                             8
      Number of determinants                     9
      Number of root(s) required                 4
      CI roots used                              1     2     3     4
      weights                                0.250 0.250 0.250 0.250
      highest root included in the CI            4
      Root passed to geometry opt.               4
--

++    Final optimization conditions:
      ------------------------------

      Average CI energy                            -108.51968890
      RASSCF energy for state  4                   -108.26032407
      Super-CI energy                                -0.00000000
      RASSCF energy change                           -0.00000000
      Max change in MO coefficients              -0.843E-05
      Max non-diagonal density matrix element    -0.168E-05
      Maximum BLB matrix element                 -0.705E-06
      (orbital pair   3,   4 in symmetry   1)
      Norm of electronic gradient            0.589E-01
--


      Final state energy(ies):
      ------------------------

::    RASSCF root number  1 Total energy:   -109.04567153
::    RASSCF root number  2 Total energy:   -108.42120596
::    RASSCF root number  3 Total energy:   -108.35155403
::    RASSCF root number  4 Total energy:   -108.26032407

++    Molecular orbitals:
      -------------------

      Pseudonatural active orbitals and approximate occupation numbers




      Molecular orbitals for symmetry species 1: ag 


      Orbital                 1         2         3
      Energy           -15.6497   -1.4877   -0.6158
      Occ. No.           2.0000    2.0000    2.0000

     1 N1     1s         0.5574    0.1225   -0.0421
     2 N1     2s         0.4677    0.1996   -0.0729
     3 N1     *s         0.0066   -0.5463    0.1814
     4 N1     *s         0.0002   -0.2054    0.4679
     5 N1     2pz       -0.0034    0.1539    0.2906
     6 N1     *pz        0.0006    0.2209    0.4306
     7 N1     *pz       -0.0004    0.0359    0.2583
     8 N1     *200      -0.0006    0.0103    0.0096
     9 N1     *020      -0.0006    0.0103    0.0096
    10 N1     *002      -0.0001   -0.0305   -0.0304



      Molecular orbitals for symmetry species 2: b3u


      Orbital                 1
      Energy             0.0000
      Occ. No.           1.2343

     1 N1     2px        0.2824
     2 N1     *px        0.4565
     3 N1     *px        0.2952
     4 N1     *101      -0.0581



      Molecular orbitals for symmetry species 3: b2u


      Orbital                 1
      Energy             0.0000
      Occ. No.           1.2343

     1 N1     2py        0.2824
     2 N1     *py        0.4565
     3 N1     *py        0.2952
     4 N1     *011      -0.0581



      Molecular orbitals for symmetry species 5: b1u


      Orbital                 1         2
      Energy           -15.6469   -0.7732
      Occ. No.           2.0000    2.0000

     1 N1     1s         0.5577   -0.1140
     2 N1     2s         0.4682   -0.1926
     3 N1     *s         0.0049    0.5522
     4 N1     *s         0.0014    0.7462
     5 N1     2pz       -0.0030    0.1297
     6 N1     *pz        0.0032    0.1815
     7 N1     *pz       -0.0009    0.0505
     8 N1     *200      -0.0005    0.0066
     9 N1     *020      -0.0005    0.0066
    10 N1     *002      -0.0011   -0.0097



      Molecular orbitals for symmetry species 6: b2g


      Orbital                 1
      Energy             0.0000
      Occ. No.           0.7657

     1 N1     2px        0.3319
     2 N1     *px        0.5402
     3 N1     *px        0.6993
     4 N1     *101       0.0047



      Molecular orbitals for symmetry species 7: b3g


      Orbital                 1
      Energy             0.0000
      Occ. No.           0.7657

     1 N1     2py        0.3319
     2 N1     *py        0.5402
     3 N1     *py        0.6993
     4 N1     *011       0.0047
--

      Von Neumann Entropy (Root  1) =  0.43467


      Mulliken population analysis for root number:  1
      -----------------------------------------------


++    Molecular charges:
      ------------------

      Mulliken charges per centre and basis function type
      ---------------------------------------------------

                N1    
      1s       1.0950
      2s       0.8986
      2px      0.1973
      2pz      0.3130
      2py      0.1973
      *s       1.8711
      *020     0.0003
      *002     0.0329
      *200     0.0003
      *px      0.7852
      *101     0.0175
      *pz      0.7888
      *py      0.7852
      *011     0.0175
      *110     0.0000
      Total    7.0000

      N-E     -0.0000

      Total electronic charge=   14.000000

      Total            charge=   -0.000000
--



      Expectation values of various properties for root number:  1
      -----------------------------------------------------------


++    Molecular properties:
      ---------------------

      Charge (e):
                      =   -0.0000
      Dipole Moment (Debye):
      Origin of the operator (Ang)=    0.0000    0.0000    0.0000
                   X=  0.0000E+00               Y=  0.0000E+00               Z=  0.0000E+00           Total=  0.0000E+00
      Quadrupole Moment (Debye*Ang):
      Origin of the operator (Ang)=    0.0000    0.0000    0.0000
                  XX= -9.9929E+00              XY=  0.0000E+00              XZ=  0.0000E+00              YY= -9.9929E+00
                  YZ=  0.0000E+00              ZZ= -1.1678E+01
      In traceless form (Debye*Ang)
                  XX=  8.4236E-01              XY=  0.0000E+00              XZ=  0.0000E+00              YY=  8.4236E-01
                  YZ=  0.0000E+00              ZZ= -1.6847E+00
--

      Von Neumann Entropy (Root  2) =  1.99994


      Mulliken population analysis for root number:  2
      -----------------------------------------------


++    Molecular charges:
      ------------------

      Mulliken charges per centre and basis function type
      ---------------------------------------------------

                N1    
      1s       1.0950
      2s       0.8986
      2px      0.2158
      2pz      0.3130
      2py      0.2158
      *s       1.8711
      *020     0.0003
      *002     0.0329
      *200     0.0003
      *px      0.7743
      *101     0.0099
      *pz      0.7888
      *py      0.7743
      *011     0.0099
      *110     0.0000
      Total    7.0000

      N-E     -0.0000

      Total electronic charge=   14.000000

      Total            charge=   -0.000000
--



      Expectation values of various properties for root number:  2
      -----------------------------------------------------------


++    Molecular properties:
      ---------------------

      Charge (e):
                      =   -0.0000
      Dipole Moment (Debye):
      Origin of the operator (Ang)=    0.0000    0.0000    0.0000
                   X=  0.0000E+00               Y=  0.0000E+00               Z=  0.0000E+00           Total=  0.0000E+00
      Quadrupole Moment (Debye*Ang):
      Origin of the operator (Ang)=    0.0000    0.0000    0.0000
                  XX= -1.0037E+01              XY=  0.0000E+00              XZ=  0.0000E+00              YY= -1.0037E+01
                  YZ=  0.0000E+00              ZZ= -1.4157E+01
      In traceless form (Debye*Ang)
                  XX=  2.0605E+00              XY=  0.0000E+00              XZ=  0.0000E+00              YY=  2.0605E+00
                  YZ=  0.0000E+00              ZZ= -4.1209E+00
--

      Von Neumann Entropy (Root  3) =  2.00000


      Mulliken population analysis for root number:  3
      -----------------------------------------------


++    Molecular charges:
      ------------------

      Mulliken charges per centre and basis function type
      ---------------------------------------------------

                N1    
      1s       1.0950
      2s       0.8986
      2px      0.2159
      2pz      0.3130
      2py      0.2159
      *s       1.8711
      *020     0.0003
      *002     0.0329
      *200     0.0003
      *px      0.7742
      *101     0.0098
      *pz      0.7888
      *py      0.7742
      *011     0.0098
      *110     0.0000
      Total    7.0000

      N-E     -0.0000

      Total electronic charge=   14.000000

      Total            charge=   -0.000000
--



      Expectation values of various properties for root number:  3
      -----------------------------------------------------------


++    Molecular properties:
      ---------------------

      Charge (e):
                      =   -0.0000
      Dipole Moment (Debye):
      Origin of the operator (Ang)=    0.0000    0.0000    0.0000
                   X=  0.0000E+00               Y=  0.0000E+00               Z=  0.0000E+00           Total=  0.0000E+00
      Quadrupole Moment (Debye*Ang):
      Origin of the operator (Ang)=    0.0000    0.0000    0.0000
                  XX= -1.0037E+01              XY=  0.0000E+00              XZ=  0.0000E+00              YY= -1.0037E+01
                  YZ=  0.0000E+00              ZZ= -1.4175E+01
      In traceless form (Debye*Ang)
                  XX=  2.0693E+00              XY=  0.0000E+00              XZ=  0.0000E+00              YY=  2.0693E+00
                  YZ=  0.0000E+00              ZZ= -4.1386E+00
--

      Von Neumann Entropy (Root  4) =  2.00000


      Mulliken population analysis for root number:  4
      -----------------------------------------------


++    Molecular charges:
      ------------------

      Mulliken charges per centre and basis function type
      ---------------------------------------------------

                N1    
      1s       1.0950
      2s       0.8986
      2px      0.2159
      2pz      0.3130
      2py      0.2159
      *s       1.8711
      *020     0.0003
      *002     0.0329
      *200     0.0003
      *px      0.7742
      *101     0.0098
      *pz      0.7888
      *py      0.7742
      *011     0.0098
      *110     0.0000
      Total    7.0000

      N-E     -0.0000

      Total electronic charge=   14.000000

      Total            charge=   -0.000000
--



      Expectation values of various properties for root number:  4
      -----------------------------------------------------------


++    Molecular properties:
      ---------------------

      Charge (e):
                      =   -0.0000
      Dipole Moment (Debye):
      Origin of the operator (Ang)=    0.0000    0.0000    0.0000
                   X=  0.0000E+00               Y=  0.0000E+00               Z=  0.0000E+00           Total=  0.0000E+00
      Quadrupole Moment (Debye*Ang):
      Origin of the operator (Ang)=    0.0000    0.0000    0.0000
                  XX= -1.0037E+01              XY=  0.0000E+00              XZ=  0.0000E+00              YY= -1.0037E+01
                  YZ=  0.0000E+00              ZZ= -1.4175E+01
      In traceless form (Debye*Ang)
                  XX=  2.0693E+00              XY=  0.0000E+00              XZ=  0.0000E+00              YY=  2.0693E+00
                  YZ=  0.0000E+00              ZZ= -4.1386E+00
--


  Input file to MOLDEN was generated!


  Input file to MOLDEN was generated!


  Input file to MOLDEN was generated!


  Input file to MOLDEN was generated!


  Input file to MOLDEN was generated!

      Average orbitals are written to the RASORB file
      Natural orbitals for root   1 are written to the RASORB.1 file
      Natural orbitals for root   2 are written to the RASORB.2 file
      Natural orbitals for root   3 are written to the RASORB.3 file
      Natural orbitals for root   4 are written to the RASORB.4 file
      Spin density orbitals for root   1 are written to the SPDORB.1 file
      Spin density orbitals for root   2 are written to the SPDORB.2 file
      Spin density orbitals for root   3 are written to the SPDORB.3 file
      Spin density orbitals for root   4 are written to the SPDORB.4 file

--- Stop Module: rasscf at Fri May 28 20:24:16 2021 /rc=_RC_ALL_IS_WELL_ ---
*** files: cart.rasscf.molden cart.rasscf.molden.1 cart.rasscf.molden.2 cart.rasscf.molden.3 cart.rasscf.molden.4 cart.RasOrb cart.RasOrb.1 cart.RasOrb.2 cart.RasOrb.3
           cart.RasOrb.4 cart.rasscf.h5 cart.SpdOrb.1 cart.SpdOrb.2 cart.SpdOrb.3 cart.SpdOrb.4 xmldump
    saved to directory /home/gayverjr/opencap_tests/openmolcas
--- Module rasscf spent 1 second ---

*** symbolic link created: INPORB -> cart.RasOrb
--- Start Module: rassi at Fri May 28 20:24:16 2021 ---

()()()()()()()()()()()()()()()()()()()()()()()()()()()()()()()()()()()()()()()()()()()()()()()()()()

                                               &RASSI

                                   only a single process is used
                       available to each process: 20 GB of memory, 16 threads
                                             pid: 20241
()()()()()()()()()()()()()()()()()()()()()()()()()()()()()()()()()()()()()()()()()()()()()()()()()()


      ********************************************************************************
      *                                                                              *
      *                             General data section                             *
      *                                                                              *
      ********************************************************************************

   Specific data for JOBIPH file JOBIPH                                                                                                                          
   -------------------------------------

   Header from SEWARD:
                                                                               
        Integrals generated by Gateway/Seward, Fri May 28 20:24:12 2021        

   CASSCF title (first line only):
       (No title given)                                                        

   STATE IRREP:                            1
   SPIN MULTIPLICITY:                      1
   ACTIVE ELECTRONS:                       4
   MAX RAS1 HOLES:                         0
   MAX RAS3 ELECTRONS:                     0
   NR OF CONFIG:                           8

  Info: creating TDMFILE
        estimated file size                    37 kB
        TDMs in AO format


   The following data are common to all the states:
   ------------------------------------------------
   (note: frozen counts as inactive, deleted as secondary)

      Nr of irreps: 8

                 Total     No./Irrep 
      Irrep                  1   2   3   4   5   6   7   8
                            ag b3u b2u b1g b1u b2g b3g  au

      INACTIVE       5       3   0   0   0   2   0   0   0
      ACTIVE         4       0   1   1   0   0   1   1   0
      SECONDARY     29       7   3   3   1   8   3   3   1
      BASIS         38      10   4   4   1  10   4   4   1

      RAS1           0       0   0   0   0   0   0   0   0
      RAS2           4       0   1   1   0   0   1   1   0
      RAS3           0       0   0   0   0   0   0   0   0

        MATRIX ELEMENTS WILL BE COMPUTED FOR THE FOLLOWING ONE-ELECTRON OPERATORS, UNLESS ZERO BY SYMMETRY.
   (Herm=Hermitian, Anti=Antihermitian, Sing=Singlet operator, Trip=Triplet operator)
     MLTPL  0   1 (HERMSING)     MLTPL  1   1 (HERMSING)     MLTPL  1   2 (HERMSING)
     MLTPL  1   3 (HERMSING)     MLTPL  2   1 (HERMSING)     MLTPL  2   2 (HERMSING)
     MLTPL  2   3 (HERMSING)     MLTPL  2   4 (HERMSING)     MLTPL  2   5 (HERMSING)
     MLTPL  2   6 (HERMSING)     VELOCITY   1 (ANTISING)     VELOCITY   2 (ANTISING)
     VELOCITY   3 (ANTISING)     ANGMOM     1 (ANTISING)     ANGMOM     2 (ANTISING)
     ANGMOM     3 (ANTISING)     MLTPV  2   1 (ANTISING)     MLTPV  2   2 (ANTISING)
     MLTPV  2   3 (ANTISING)     MLTPV  2   4 (ANTISING)     MLTPV  2   5 (ANTISING)
     MLTPV  2   6 (ANTISING)

       EIGENSTATES OF A SPIN-FREE HAMILTONIAN WILL BE COMPUTED BASED ON:

  A Hamiltonian matrix computed by RASSI.
  SO coupling elements will be added.
       EIGENSTATES OF SPIN-ORBIT HAMILTONIAN WILL BE COMPUTED
        MATRIX ELEMENTS OVER SPIN EIGENSTATES FOR:
     MLTPL  0   1 (HERMSING)     MLTPL  1   1 (HERMSING)     MLTPL  1   2 (HERMSING)
     MLTPL  1   3 (HERMSING)     MLTPL  2   1 (HERMSING)     MLTPL  2   2 (HERMSING)
     MLTPL  2   3 (HERMSING)     MLTPL  2   4 (HERMSING)     MLTPL  2   5 (HERMSING)
     MLTPL  2   6 (HERMSING)     VELOCITY   1 (ANTISING)     VELOCITY   2 (ANTISING)
     VELOCITY   3 (ANTISING)     ANGMOM     1 (ANTISING)     ANGMOM     2 (ANTISING)
     ANGMOM     3 (ANTISING)     MLTPV  2   1 (ANTISING)     MLTPV  2   2 (ANTISING)
     MLTPV  2   3 (ANTISING)     MLTPV  2   4 (ANTISING)     MLTPV  2   5 (ANTISING)
     MLTPV  2   6 (ANTISING)

  Nr of states:                    4

   State:        1   2   3   4
  JobIph:        1   1   1   1
 Root nr:        1   2   3   4

  HAMILTONIAN MATRIX FOR THE ORIGINAL STATES:

  Diagonal, with energies
   -109.04567153   -108.42120596   -108.35155403   -108.26032407

      OVERLAP MATRIX FOR THE ORIGINAL STATES:

  Diagonal, with elements
      1.00000000      1.00000000      1.00000000      1.00000000

::    RASSI State    1     Total energy:   -109.04567153
::    RASSI State    2     Total energy:   -108.42120596
::    RASSI State    3     Total energy:   -108.35155403
::    RASSI State    4     Total energy:   -108.26032407



      ****************************************************************************************************
      *                                                                                                  *
      *                                         Spin-free section                                        *
      *                                                                                                  *
      *                 Note: index according to input order, order according to energy.                 *
      *                                                                                                  *
      ****************************************************************************************************



  SPIN-FREE ENERGIES:
  (Shifted by EMIN (a.u.) =       -109.0456715295)

 SF State       Relative EMIN(au)   Rel lowest level(eV)    D:o, cm**(-1)      L_eff

     1             0.0000000000        0.0000000000              0.0000         0.0
     2             0.6244655650       16.9925736863         137054.3497         0.0
     3             0.6941175036       18.8878994913         152341.1832         0.0
     4             0.7853474558       21.3703929571         172363.8434         0.0
 Electric-dipole - electric-octupole not included
 Electric-dipole - magnetic-quadrupole not included


      ****************************************************************************************************
      *                                                                                                  *
      *                                    Special properties section                                    *
      *                                                                                                  *
      ****************************************************************************************************


++ I/O STATISTICS
 
  I. General I/O information
  - - - - - - - - - - - - - - - - - - - - - - - - - - - - - - - - - - - - - - - - - - -
  Unit  Name          Flsize      Write/Read            MBytes           Write/Read
                      (MBytes)       Calls              In/Out           Time, sec.
  - - - - - - - - - - - - - - - - - - - - - - - - - - - - - - - - - - - - - - - - - - -
   1  SCRATCH           0.00 .       4/      10 .      0.0/      0.0 .       0/       0
   2  ANNI              0.00 .       0/       0 .      0.0/      0.0 .       0/       0
   3  RUNFILE           0.20 .     266/    1368 .      1.9/      9.9 .       0/       0
   4  ONEINT            1.39 .       0/     414 .      0.0/    450.2 .       0/       0
   5  JOBIPH            1.12 .       0/      72 .      0.0/      0.3 .       0/       0
   6  TDMFILE           0.04 .      16/      16 .      0.0/      0.0 .       0/       0
   7  ORDINT           26.53 .       1/      57 .      0.0/     14.0 .       0/       0
  - - - - - - - - - - - - - - - - - - - - - - - - - - - - - - - - - - - - - - - - - - -
   *  TOTAL            29.28 .     287/    1937 .      1.9/    474.5 .       0/       0
  - - - - - - - - - - - - - - - - - - - - - - - - - - - - - - - - - - - - - - - - - - -
 
  II. I/O Access Patterns
  - - - - - - - - - - - - - - - - - - - -
  Unit  Name               % of random
                         Write/Read calls
  - - - - - - - - - - - - - - - - - - - -
   1  SCRATCH             75.0/ 100.0
   2  ANNI                 0.0/   0.0
   3  RUNFILE             28.6/  10.3
   4  ONEINT               0.0/  97.1
   5  JOBIPH               0.0/  83.3
   6  TDMFILE             93.8/ 100.0
   7  ORDINT             100.0/  68.4
  - - - - - - - - - - - - - - - - - - - -
--
--- Stop Module: rassi at Fri May 28 20:24:16 2021 /rc=_RC_ALL_IS_WELL_ ---
*** files: cart.rassi.h5 xmldump
    saved to directory /home/gayverjr/opencap_tests/openmolcas

*** symbolic link created: INPORB -> cart.RasOrb
--- Start Module: caspt2 at Fri May 28 20:24:16 2021 ---

()()()()()()()()()()()()()()()()()()()()()()()()()()()()()()()()()()()()()()()()()()()()()()()()()()

                                              &CASPT2

                                   only a single process is used
                       available to each process: 20 GB of memory, 16 threads
                                             pid: 20265
()()()()()()()()()()()()()()()()()()()()()()()()()()()()()()()()()()()()()()()()()()()()()()()()()()


++    Wave function specifications:
      -----------------------------

      Number of closed shell electrons           6
      Number of electrons in active shells       4
      Max number of holes in RAS1 space          0
      Max number of electrons in RAS3 space      0
      Number of inactive orbitals                3
      Number of active orbitals                  4
      Number of secondary orbitals              29
      Spin quantum number                      0.0
      State symmetry                             1
      Number of CSFs                             8
      Number of root(s) available                4
      Root passed to geometry opt.               4
      A file JOBMIX will be created
      This is a MULTI-STATE CASSCF reference
      Number of CI roots used                    4
      These are:                                 1   2   3   4
      Off-diagonal elements of Heff are computed
--

++    Orbital specifications:
      -----------------------

      Symmetry species                           1   2   3   4   5   6   7   8
                                                ag b3u b2u b1g b1u b2g b3g  au
      Frozen orbitals                            1   0   0   0   1   0   0   0
      Inactive orbitals                          2   0   0   0   1   0   0   0
      Active orbitals                            0   1   1   0   0   1   1   0
      Secondary orbitals                         7   3   3   1   8   3   3   1
      Deleted orbitals                           0   0   0   0   0   0   0   0
      Number of basis functions                 10   4   4   1  10   4   4   1
--

++    CASPT2 specifications:
      ----------------------

      Type of calculation                        MS-CASPT2
      Fock operator                              state-specific
      IPEA shift                                 0.25
      Real shift                                 0.00
      Imaginary shift                            0.00
      The input orbitals will be transformed to quasi-canonical
--

--------------------------------------------------------------------------------
 Estimated memory requirements:
  POLY3 :                   250420
  RHS:                      250892
  SIGMA :                   251440
  PRPCTL:                        0
 Available workspace:   2249996765

++ CASPT2 computation for group   1

********************************************************************************
 Multi-State initialization phase begins for group   1
--------------------------------------------------------------------------------
********************************************************************************
 Compute H0 matrices for state    1
--------------------------------------------------------------------------------
--------------------------------------------------------------------------------
 H0 matrices have been computed.

********************************************************************************
  CASPT2 EQUATION SOLUTION
--------------------------------------------------------------------------------

  Total nr of CASPT2 parameters:
   Before reduction:        3601
   After  reduction:        3444

 The contributions to the second order correlation energy in atomic units.
-----------------------------------------------------------------------------------------------------------------------------
  IT.      VJTU        VJTI        ATVX        AIVX        VJAI        BVAT        BJAT        BJAI        TOTAL       RNORM  
-----------------------------------------------------------------------------------------------------------------------------
   1     0.000000   -0.007308   -0.011800   -0.062903   -0.013146   -0.026473   -0.068176   -0.056645   -0.246452    0.001933
   2     0.000000   -0.007368   -0.011845   -0.062990   -0.013158   -0.026490   -0.068204   -0.056657   -0.246710    0.000125
   3     0.000000   -0.007367   -0.011845   -0.062992   -0.013158   -0.026489   -0.068207   -0.056657   -0.246716    0.000008
-----------------------------------------------------------------------------------------------------------------------------

  FINAL CASPT2 RESULT:

      Reference energy:        -109.0456715295
      E2 (Non-variational):      -0.2467148780
      E2 (Variational):          -0.2467148618
      Total energy:            -109.2923863913
      Residual norm:              0.0000004738
      Reference weight:           0.93783

      Contributions to the CASPT2 correlation energy
      Active & Virtual Only:         -0.0383340514
      One Inactive Excited:          -0.1311982604
      Two Inactive Excited:          -0.0771825662


++ Denominators, etc.
--------------------------------------------------------------------------------------------------------------
 Report on small energy denominators, large coefficients, and large energy contributions.
CASE  SYMM ACTIVE-MIX  NON-ACTIVE INDICES          DENOMINATOR     RHS VALUE       COEFFICIENT     CONTRIBUTION
VJTIP    1  Mu1.0002  In1.003 In1.003               1.53986121     -0.04379400      0.02917349     -0.00127762
VJTIP    1  Mu1.0002  In5.002 In5.002               1.84463401     -0.09625980      0.05216106     -0.00502101
ATVX     6  Mu6.0001  Se6.002                       2.19564205      0.09264579     -0.04129250     -0.00382558
ATVX     7  Mu7.0001  Se7.002                       2.19564210      0.09264624     -0.04129270     -0.00382561
AIVX     5  Mu5.0004  In5.002 Se1.005               2.27915803      0.11534793     -0.04925096     -0.00568100
AIVX     5  Mu5.0002  In5.002 Se1.006               3.45552903     -0.13231979      0.03815000     -0.00504800
AIVX     5  Mu5.0004  In1.002 Se5.003               2.77771112     -0.09155090      0.03222585     -0.00295031
AIVX     5  Mu5.0004  In1.003 Se5.004               2.38740731     -0.14341070      0.05872038     -0.00842113
AIVX     5  Mu5.0004  In1.002 Se5.005               3.57157311     -0.16269630      0.04451904     -0.00724308
AIVX     5  Mu5.0004  In1.003 Se5.005               2.73756042     -0.12271428      0.04406694     -0.00540764
AIVX     8  Mu8.0004  In5.002 Se4.001               3.45420656     -0.13241640      0.03819260     -0.00505733
VJAIP    6  Mu6.0001  Se2.003 In5.002 In1.003       3.53706591      0.09929522     -0.02813493     -0.00279366
VJAIP    7  Mu7.0001  Se3.003 In5.002 In1.003       3.53706591      0.09929522     -0.02813493     -0.00279366
BVATM    4  Mu4.0001  Se3.002 Se2.002               2.49963074     -0.06532291      0.02525060     -0.00164944
BVATM    4  Mu4.0001  Se4.001 Se1.006               5.04222091      0.13708286     -0.02718700     -0.00372687
BJAIP    5  Se1.005 In1.003 Se5.004 In5.002         3.11161853     -0.10751515      0.03451895     -0.00371131
--

   (Skipping property calculation,
    use PROP keyword to activate)
--

++ CASPT2 computation for group   2

********************************************************************************
 Multi-State initialization phase begins for group   2
--------------------------------------------------------------------------------
********************************************************************************
 Compute H0 matrices for state    2
--------------------------------------------------------------------------------
--------------------------------------------------------------------------------
 H0 matrices have been computed.

********************************************************************************
  CASPT2 EQUATION SOLUTION
--------------------------------------------------------------------------------

  Total nr of CASPT2 parameters:
   Before reduction:        3601
   After  reduction:        3444

 The contributions to the second order correlation energy in atomic units.
-----------------------------------------------------------------------------------------------------------------------------
  IT.      VJTU        VJTI        ATVX        AIVX        VJAI        BVAT        BJAT        BJAI        TOTAL       RNORM  
-----------------------------------------------------------------------------------------------------------------------------
   1     0.000000   -0.002765   -0.003541   -0.041990   -0.014907   -0.023933   -0.079647   -0.056664   -0.223447    0.001785
   2     0.000000   -0.002767   -0.003587   -0.042014   -0.014908   -0.023991   -0.079711   -0.056662   -0.223640    0.000182
   3     0.000000   -0.002767   -0.003587   -0.042016   -0.014909   -0.023992   -0.079715   -0.056663   -0.223649    0.000014
   4     0.000000   -0.002767   -0.003588   -0.042015   -0.014909   -0.023992   -0.079714   -0.056663   -0.223648    0.000001
-----------------------------------------------------------------------------------------------------------------------------

  FINAL CASPT2 RESULT:

      Reference energy:        -108.4212059645
      E2 (Non-variational):      -0.2236478995
      E2 (Variational):          -0.2236479071
      Total energy:            -108.6448538716
      Residual norm:              0.0000001005
      Reference weight:           0.94182

      Contributions to the CASPT2 correlation energy
      Active & Virtual Only:         -0.0275795919
      One Inactive Excited:          -0.1217295509
      Two Inactive Excited:          -0.0743387567


++ Denominators, etc.
--------------------------------------------------------------------------------------------------------------
 Report on small energy denominators, large coefficients, and large energy contributions.
CASE  SYMM ACTIVE-MIX  NON-ACTIVE INDICES          DENOMINATOR     RHS VALUE       COEFFICIENT     CONTRIBUTION
ATVX     2  Mu2.0001  Se2.002                       0.36941706      0.01517803     -0.03950673     -0.00059963
ATVX     3  Mu3.0001  Se3.002                       0.36941706      0.01517803     -0.03950673     -0.00059963
AIVX     1  Mu1.0002  In1.002 Se1.006               3.63557100      0.15156876     -0.04157750     -0.00630185
AIVX     1  Mu1.0002  In1.003 Se1.006               2.75014707     -0.07260885      0.02641421     -0.00191791
AIVX     1  Mu1.0002  In5.002 Se5.006               3.42093498     -0.14279811      0.04162525     -0.00594401
AIVX     4  Mu4.0002  In1.002 Se4.001               3.59271636      0.15159580     -0.04208133     -0.00637935
AIVX     4  Mu4.0002  In1.003 Se4.001               2.70729243     -0.07254799      0.02681021     -0.00194503
AIVX     4  Mu4.0002  In5.002 Se8.001               3.37808033     -0.14252932      0.04207404     -0.00599678
AIVX     5  Mu5.0002  In1.002 Se5.003               1.79718396      0.06291146     -0.03489349     -0.00219520
AIVX     5  Mu5.0002  In1.002 Se5.005               2.53518587      0.06659759     -0.02614768     -0.00174137
BJAIP    1  Se5.004 In1.003 Se5.004 In1.003         3.21609987      0.08292854     -0.02578544     -0.00213835
BJAIP    5  Se1.005 In1.003 Se5.004 In5.002         3.13732048     -0.10564430      0.03368260     -0.00355837
--

   (Skipping property calculation,
    use PROP keyword to activate)
--

++ CASPT2 computation for group   3

********************************************************************************
 Multi-State initialization phase begins for group   3
--------------------------------------------------------------------------------
********************************************************************************
 Compute H0 matrices for state    3
--------------------------------------------------------------------------------
--------------------------------------------------------------------------------
 H0 matrices have been computed.

********************************************************************************
  CASPT2 EQUATION SOLUTION
--------------------------------------------------------------------------------

  Total nr of CASPT2 parameters:
   Before reduction:        3601
   After  reduction:        2816

 The contributions to the second order correlation energy in atomic units.
-----------------------------------------------------------------------------------------------------------------------------
  IT.      VJTU        VJTI        ATVX        AIVX        VJAI        BVAT        BJAT        BJAI        TOTAL       RNORM  
-----------------------------------------------------------------------------------------------------------------------------
   1     0.000000   -0.000000   -0.000716   -0.039312   -0.014939   -0.027374   -0.079808   -0.056662   -0.218811    0.001729
   2     0.000000   -0.000000   -0.000720   -0.039327   -0.014941   -0.027445   -0.079873   -0.056660   -0.218967    0.000091
   3     0.000000   -0.000000   -0.000720   -0.039328   -0.014942   -0.027446   -0.079874   -0.056661   -0.218970    0.000007
-----------------------------------------------------------------------------------------------------------------------------

  FINAL CASPT2 RESULT:

      Reference energy:        -108.3515540259
      E2 (Non-variational):      -0.2189692082
      E2 (Variational):          -0.2189692005
      Total energy:            -108.5705232264
      Residual norm:              0.0000003741
      Reference weight:           0.94752

      Contributions to the CASPT2 correlation energy
      Active & Virtual Only:         -0.0281653787
      One Inactive Excited:          -0.1192013792
      Two Inactive Excited:          -0.0716024503


++ Denominators, etc.
--------------------------------------------------------------------------------------------------------------
 Report on small energy denominators, large coefficients, and large energy contributions.
CASE  SYMM ACTIVE-MIX  NON-ACTIVE INDICES          DENOMINATOR     RHS VALUE       COEFFICIENT     CONTRIBUTION
BJAIP    1  Se5.004 In1.003 Se5.004 In1.003         3.21604164      0.08294588     -0.02579130     -0.00213928
BJAIP    5  Se1.005 In1.003 Se5.004 In5.002         3.13749894     -0.10563848      0.03367916     -0.00355782
--

   (Skipping property calculation,
    use PROP keyword to activate)
--

++ CASPT2 computation for group   4

********************************************************************************
 Multi-State initialization phase begins for group   4
--------------------------------------------------------------------------------
********************************************************************************
 Compute H0 matrices for state    4
--------------------------------------------------------------------------------
--------------------------------------------------------------------------------
 H0 matrices have been computed.

********************************************************************************
  CASPT2 EQUATION SOLUTION
--------------------------------------------------------------------------------

  Total nr of CASPT2 parameters:
   Before reduction:        3601
   After  reduction:        3227

 The contributions to the second order correlation energy in atomic units.
-----------------------------------------------------------------------------------------------------------------------------
  IT.      VJTU        VJTI        ATVX        AIVX        VJAI        BVAT        BJAT        BJAI        TOTAL       RNORM  
-----------------------------------------------------------------------------------------------------------------------------
   1     0.000000   -0.023335   -0.001608   -0.019312   -0.014710   -0.041072   -0.079879   -0.056664   -0.236580    0.001834
   2     0.000000   -0.023398   -0.001615   -0.019319   -0.014708   -0.041145   -0.079943   -0.056666   -0.236795    0.000084
   3     0.000000   -0.023399   -0.001614   -0.019319   -0.014709   -0.041145   -0.079945   -0.056667   -0.236799    0.000007
-----------------------------------------------------------------------------------------------------------------------------

  FINAL CASPT2 RESULT:

      Reference energy:        -108.2603240737
      E2 (Non-variational):      -0.2367982932
      E2 (Variational):          -0.2367982867
      Total energy:            -108.4971223604
      Residual norm:              0.0000003422
      Reference weight:           0.93595

      Contributions to the CASPT2 correlation energy
      Active & Virtual Only:         -0.0427593843
      One Inactive Excited:          -0.0992637043
      Two Inactive Excited:          -0.0947752047


++ Denominators, etc.
--------------------------------------------------------------------------------------------------------------
 Report on small energy denominators, large coefficients, and large energy contributions.
CASE  SYMM ACTIVE-MIX  NON-ACTIVE INDICES          DENOMINATOR     RHS VALUE       COEFFICIENT     CONTRIBUTION
VJTIP    1  Mu1.0002  In1.002 In1.002               2.39007848     -0.09728268      0.04052562     -0.00394244
VJTIP    1  Mu1.0002  In1.003 In1.003               0.61842441     -0.02550433      0.04077515     -0.00103994
VJTIP    1  Mu1.0003  In1.003 In1.003               1.45542881      0.03882782     -0.02673461     -0.00103805
VJTIP    1  Mu1.0002  In5.002 In5.002               0.93766092     -0.04357509      0.04563629     -0.00198861
VJTIP    1  Mu1.0003  In5.002 In5.002               1.77466532      0.07861746     -0.04404686     -0.00346285
VJTIP    5  Mu5.0001  In5.002 In1.002               2.08195027     -0.07198846      0.03418966     -0.00246126
VJTIP    5  Mu5.0002  In5.002 In1.002               2.08195027     -0.07198846      0.03418966     -0.00246126
VJTIP    5  Mu5.0001  In5.002 In1.003               1.19612324      0.05225194     -0.04346060     -0.00227090
VJTIP    5  Mu5.0002  In5.002 In1.003               1.19612324      0.05225194     -0.04346060     -0.00227090
BVATP    5  Mu5.0001  Se6.002 Se2.002               2.25493435      0.07096319     -0.03149112     -0.00223471
BVATP    5  Mu5.0002  Se7.002 Se3.002               2.25493435      0.07096319     -0.03149112     -0.00223471
BJAIP    1  Se5.004 In1.003 Se5.004 In1.003         3.21604164      0.08294588     -0.02579130     -0.00213928
BJAIP    5  Se1.005 In1.003 Se5.004 In5.002         3.13749894     -0.10563848      0.03367916     -0.00355782
--

   (Skipping property calculation,
    use PROP keyword to activate)
--

  Total CASPT2 energies:
::    CASPT2 Root  1     Total energy:   -109.29238639
::    CASPT2 Root  2     Total energy:   -108.64485387
::    CASPT2 Root  3     Total energy:   -108.57052323
::    CASPT2 Root  4     Total energy:   -108.49712236

++ Multi-State CASPT2 section:
********************************************************************************
  MULTI-STATE CASPT2 SECTION
--------------------------------------------------------------------------------

  Output diagonal energies have been shifted. Add   -109.00000000000000     

  Effective Hamiltonian matrix (Symmetric):

                1               2               3               4
   1        -0.29238639
   2        -0.00705970      0.35514613
   3         0.00007687     -0.00066025      0.42947677
   4         0.00000000      0.00000000      0.00000000      0.50287764

       Total MS-CASPT2 energies:
::    MS-CASPT2 Root  1     Total energy:   -109.29246336
::    MS-CASPT2 Root  2     Total energy:   -108.64478280
::    MS-CASPT2 Root  3     Total energy:   -108.57051734
::    MS-CASPT2 Root  4     Total energy:   -108.49712236

       Eigenvectors:
            0.99994058     -0.01089914      0.00019353      0.00000000
            0.01090043      0.99990098     -0.00889991     -0.00000000
           -0.00009651      0.00890149      0.99996038      0.00000000
           -0.00000000      0.00000000     -0.00000000      1.00000000

--

  THE ORIGINAL CI ARRAYS ARE NOW MIXED AS LINEAR
  COMBINATIONS, GIVEN BY THE EIGENVECTORS.
  A NEW JOBIPH FILE NAMED 'JOBMIX' IS PREPARED.
********************************************************************************

++ Mixed CI coefficients:
  The CI coefficients for the MIXED state nr.   1
--------------------------------------------------------------------------------
 CI COEFFICIENTS LARGER THAN  0.50D-01
  Occupation of active orbitals, and spin coupling
  of open shells. (u,d: Spin up or down).
  SGUGA info is (Midvert:IsyUp:UpperWalk/LowerWalk)
        Conf  SGUGA info        Occupation    Coefficient         Weight
           1  ( 1:1:   1/   1)   2 2 0 0         0.966764       0.934632
           3  ( 3:1:   2/   1)   2 0 0 2        -0.136816       0.018719
           4  ( 3:1:   1/   2)   0 2 2 0        -0.136816       0.018719
           6  ( 3:4:   1/   1)   u d u d         0.115579       0.013358
           7  ( 4:4:   1/   1)   u u d d        -0.107538       0.011564

  The CI coefficients for the MIXED state nr.   2
--------------------------------------------------------------------------------
 CI COEFFICIENTS LARGER THAN  0.50D-01
  Occupation of active orbitals, and spin coupling
  of open shells. (u,d: Spin up or down).
  SGUGA info is (Midvert:IsyUp:UpperWalk/LowerWalk)
        Conf  SGUGA info        Occupation    Coefficient         Weight
           1  ( 1:1:   1/   1)   2 2 0 0         0.081495       0.006641
           2  ( 3:1:   1/   1)   2 0 2 0        -0.145291       0.021109
           3  ( 3:1:   2/   1)   2 0 0 2         0.359031       0.128903
           4  ( 3:1:   1/   2)   0 2 2 0         0.359031       0.128903
           5  ( 3:1:   2/   2)   0 2 0 2        -0.145291       0.021109
           6  ( 3:4:   1/   1)   u d u d        -0.491734       0.241802
           7  ( 4:4:   1/   1)   u u d d        -0.670613       0.449721

  The CI coefficients for the MIXED state nr.   3
--------------------------------------------------------------------------------
 CI COEFFICIENTS LARGER THAN  0.50D-01
  Occupation of active orbitals, and spin coupling
  of open shells. (u,d: Spin up or down).
  SGUGA info is (Midvert:IsyUp:UpperWalk/LowerWalk)
        Conf  SGUGA info        Occupation    Coefficient         Weight
           2  ( 3:1:   1/   1)   2 0 2 0        -0.352276       0.124098
           3  ( 3:1:   2/   1)   2 0 0 2         0.350358       0.122751
           4  ( 3:1:   1/   2)   0 2 2 0         0.350358       0.122751
           5  ( 3:1:   2/   2)   0 2 0 2        -0.352276       0.124098
           6  ( 3:4:   1/   1)   u d u d         0.711523       0.506265

  The CI coefficients for the MIXED state nr.   4
--------------------------------------------------------------------------------
 CI COEFFICIENTS LARGER THAN  0.50D-01
  Occupation of active orbitals, and spin coupling
  of open shells. (u,d: Spin up or down).
  SGUGA info is (Midvert:IsyUp:UpperWalk/LowerWalk)
        Conf  SGUGA info        Occupation    Coefficient         Weight
           2  ( 3:1:   1/   1)   2 0 2 0        -0.706958       0.499789
           5  ( 3:1:   2/   2)   0 2 0 2         0.706958       0.499789

--

--- Stop Module: caspt2 at Fri May 28 20:24:17 2021 /rc=_RC_ALL_IS_WELL_ ---
*** files: xmldump
    saved to directory /home/gayverjr/opencap_tests/openmolcas

.##################.
.# Happy landing! #.
.##################.

    Timing: Wall=5.45 User=3.68 System=1.95
