******************************************************
*** WorkDir and CurrDir are the same, not cleaned! ***
******************************************************
   This run of MOLCAS is using the pymolcas driver

                             OPE
                             OPE          NMOL  CASOP  ENMOLC A   SO
                 OPE        NMOLC        AS  OP EN  MO LC     AS  OP
                OPENM       OL CA        SO  PE NM  OL CA     SOP EN
                OP EN      MO   LC       AS  OP ENMOL  CASO   PENMOL
                OP  EN     MO   LC       AS  OP EN     MO     LC ASO
               OP   E  NMOL  C  AS       OP  EN MO     LC     AS  OP
               OP  E   NMO   LC AS        OPEN  MO     LCASOP EN   M
               O  PEN   MO  LCA  SO
            OPE   NMO   L   CAS    OP
        OPENMOL  CASOP     ENMOL   CASOPE
     OPENMOLCA   SOPENMOLCASOPEN   MOLCASOPE
    OPENMOLCAS   OP           EN   MOL    CAS
    OPENMOLCAS       OP  ENM        O     LCA
    OPENMOLCAS    OPEN  MOLCASO     P  E  NMO
    OPENMOLCAS     OP               E  N  MOL
    OPENMOLCA   SO           PENM   O  L  CAS    OPEN    MO    LCAS
    OPENMOLCA   SOP           ENM   O  L  CAS   OP  EN  MOLC  AS   O
    OPENMOLCA   SOPE           NM      O  LCA   S      OP  EN MO
    OPENMOLC                AS         O  PEN   M      OL  CA  SOPE
    OPENMO        LCASOPE  NMOL        C  ASO   P      ENMOLC     AS
    OPE     NMO      LCA  SO     P     E   NM   OL  CA SO  PE N   MO
          OPENMOLCA            SOPE   NMO        LCAS  O    P  ENMO
     OPENMOLCASOPENMOLCASOPENMOLCASOPENMOLCA
        OPENMOLCASOPENMOLCASOPENMOLCASOPE
            OPENMOLCASOPENMOLCASOPENM
               OPENMOLCASOPENMOLCA        version: 19.11
                   OPENMOLCASO
                       OPE                tag: 1162-ga18ab34

 OpenMolcas is free software; you can redistribute it and/or modify it
 under the terms of the GNU Lesser General Public License version 2.1.
 OpenMolcas is distributed in the hope that it will be useful, but it
 is provided "as is" and without any express or implied warranties.
 For more details see the full text of the license in the file
 LICENSE or in <http://www.gnu.org/licenses/>.

                 Copyright (C) The OpenMolcas Authors
           For the author list and the recommended citation,
                   consult the file CONTRIBUTORS.md

           *************************************************
           * pymolcas version py2.08                       *
           *   build bed633bbe89b7744c23cdbfc3f64969c      *
           *   (after the EMIL interpreter by V. Veryazov) *
           *************************************************

configuration info
------------------
C Compiler ID: GNU
C flags: -std=gnu99 -fopenmp
Fortran Compiler ID: GNU
Fortran flags: -fno-aggressive-loop-optimizations -cpp -fdefault-integer-8 -fopenmp
Definitions: _MOLCAS_;_I8_;_LINUX_;_MKL_;_DMRG_
Parallel: OFF (GA=OFF)


   ----------------------------------------------------------------------
  |
  |             Project: g_test
  |      Submitted from: /scratch/gayverjr/g_test.3861303077
  |        Scratch area: /scratch/gayverjr/g_test.3861303077
  |     Save outputs to: /home/gayverjr/OpenCAP/molcas_tests/carts
  |              Molcas: /home/qcsoftware/OpenMolcas/qcmaquis_build/build
  |
  | Scratch area is NOT empty
  |
  |      MOLCAS_DRIVER = /home/qcsoftware/bin/pymolcas
  | MOLCAS_NEW_WORKDIR = YES
  |      MOLCAS_NPROCS = 16
  |      MOLCAS_SOURCE = /home/qcsoftware/OpenMolcas/Molcas_src
  |   MOLCAS_STRUCTURE = 0
  |
   ----------------------------------------------------------------------

++ ---------   Input file   ---------

&GATEWAY
Basis set
N.aug-cc-pvqz
 N1     0.000000000      0.000000000      0.000000000     /Angstrom
 N2     0.000000000      0.000000000      0.550000000     /Angstrom
End of basis set

&SEWARD

&SCF

&RASSCF
LUMORB
Charge = 0
Ras2=4
TDM
NActEl=4,0,0
CIROOT= 10 10 1

&CASPT2
MAXIter = 50
XMULtistate = all

&RASSI
TRD1
Heff
EJOB

-- ----------------------------------

--- Start Module: gateway at Tue Aug  4 16:12:24 2020 ---

()()()()()()()()()()()()()()()()()()()()()()()()()()()()()()()()()()()()()()()()()()()()()()()()()()

                                              &GATEWAY

                                   only a single process is used
                       available to each process: 20 GB of memory, 16 threads
                                             pid: 48733
()()()()()()()()()()()()()()()()()()()()()()()()()()()()()()()()()()()()()()()()()()()()()()()()()()


++    Symmetry information:
      ---------------------

                    Character Table for C1 

                             E  
                    a        1  x, y, xy, Rz, z, xz, Ry, yz, Rx, I
--


++    Basis set information:
      ----------------------


      Basis set label: N.AUG-CC-PVQZ.........

      Electronic valence basis set:
      ------------------
      Associated Effective Charge   7.000000 au
      Associated Actual Charge      7.000000 au
      Nuclear Model: Point charge

      Shell  nPrim  nBasis  Cartesian Spherical Contaminant
         s      13       6        X                  
         p       7       5        X                  
         d       4       4                 X         
         f       3       3                 X         
         g       2       2                 X         
--


++    Molecular structure info:
      -------------------------

                    ************************************************ 
                    **** Cartesian Coordinates / Bohr, Angstrom **** 
                    ************************************************ 

     Center  Label                x              y              z                     x              y              z
        1      N1               0.000000       0.000000       0.000000              0.000000       0.000000       0.000000
        2      N2               0.000000       0.000000       1.039349              0.000000       0.000000       0.550000
--


            Nuclear Potential Energy             47.14487879 au

--- Stop Module: gateway at Tue Aug  4 16:12:25 2020 /rc=_RC_ALL_IS_WELL_ ---
*** files: xmldump
    saved to directory /home/gayverjr/OpenCAP/molcas_tests/carts
--- Module gateway spent 1 second ---

--- Start Module: seward at Tue Aug  4 16:12:26 2020 ---

()()()()()()()()()()()()()()()()()()()()()()()()()()()()()()()()()()()()()()()()()()()()()()()()()()

                                              &SEWARD

                                   only a single process is used
                       available to each process: 20 GB of memory, 16 threads
                                             pid: 48754
()()()()()()()()()()()()()()()()()()()()()()()()()()()()()()()()()()()()()()()()()()()()()()()()()()

               SEWARD will generate:
                  Multipole Moment integrals up to order  2
                  Kinetic Energy integrals
                  Nuclear Attraction integrals (point charge)
                  One-Electron Hamiltonian integrals
                  Velocity integrals
                  Orbital angular momentum around ( 0.0000  0.0000  0.5197 )
                  Velocity quadrupole around ( 0.0000  0.0000  0.5197 )
                  Two-Electron Repulsion integrals

                   Integrals are discarded if absolute value <: 0.10E-13
                   Integral cutoff threshold is set to       <: 0.10E-15

            Nuclear Potential Energy             47.14487879 au


      Basis set specifications :
      Symmetry species         a  
      Basis functions          160


  Input file to MOLDEN was generated!

--- Stop Module: seward at Tue Aug  4 16:12:37 2020 /rc=_RC_ALL_IS_WELL_ ---
*** files: g_test.GssOrb g_test.guessorb.h5 g_test.guessorb.molden xmldump
    saved to directory /home/gayverjr/OpenCAP/molcas_tests/carts
--- Module seward spent 10 seconds ---

*** symbolic link created: INPORB -> g_test.GssOrb
--- Start Module: scf at Tue Aug  4 16:12:37 2020 ---

()()()()()()()()()()()()()()()()()()()()()()()()()()()()()()()()()()()()()()()()()()()()()()()()()()

                                                &SCF

                                   only a single process is used
                       available to each process: 20 GB of memory, 16 threads
                                             pid: 48862
()()()()()()()()()()()()()()()()()()()()()()()()()()()()()()()()()()()()()()()()()()()()()()()()()()

++    Input section:
      --------------

      Header of the integral files:
      
       Integrals generated by seward 4.2.0  , Tue Aug  4 16:12:26 2020


      Cartesian coordinates in Angstrom:
      -----------------------------------------------------
      No.  Label        X            Y            Z        
      -----------------------------------------------------
       1   N1         0.00000000   0.00000000   0.00000000
       2   N2         0.00000000   0.00000000   0.55000000
      -----------------------------------------------------
      Nuclear repulsion energy =   47.14487879
--

++    Orbital specifications:
      -----------------------

      Symmetry species               1
                                     a
      Frozen orbitals                0
      Occupied orbitals              7
      Secondary orbitals           153
      Deleted orbitals               0
      Total number of orbitals     160
      Number of basis functions    160
--

      Molecular charge                           0.000

++    Optimization specifications:
      ----------------------------

      SCF Algorithm: Conventional
      Minimized density differences are used
      Number of density matrices in core                5
      Maximum number of NDDO SCF iterations           400
      Maximum number of HF SCF iterations             400
      Threshold for SCF energy change            0.10E-08
      Threshold for density matrix               0.10E-03
      Threshold for Fock matrix                  0.15E-03
      Threshold for linear dependence            0.10E-08
      Threshold at which DIIS is turned on       0.15E+00
      Threshold at which QNR/C2DIIS is turned on 0.75E-01
      Threshold for Norm(delta) (QNR/C2DIIS)     0.20E-04
      DIIS extrapolation of the SCF procedure
      All orbitals punched on: SCFORB
--

      Input vectors read from INPORB
      Orbital file label: *Guess orbitals


++ Convergence information
                                   SCF        iterations: Energy and convergence statistics

Iter     Tot. SCF        One-elec.       Two-elec.     Energy      Max Dij or  Max Fij      DNorm      TNorm      AccCon     Time
         Energy          Energy          Energy        Change      Delta Norm                                                in Sec.
   1  -104.008887009  -223.593978346    72.440212547   0.00E+00    0.35E+00*   0.90E+00*    0.66E+01   0.15E+03   None         9.
   2  -105.006643914  -235.707154240    83.555631536  -0.10E+01*   0.19E+00*   0.14E+00*    0.17E+02   0.15E+03   EDIIS        9.
   3  -105.139712178  -230.566521258    78.281930290  -0.13E+00*   0.52E-01*   0.55E-01*    0.54E+01   0.15E+03   EDIIS        9.
   4  -105.161609104  -232.666565191    80.360077297  -0.22E-01*   0.32E-01*   0.23E-01*    0.61E+00   0.15E+03   EDIIS        9.
   5  -105.165122023  -231.786462876    79.476462064  -0.35E-02*   0.29E-02*   0.68E-02*    0.19E+00   0.15E+03   c2DIIS       9.
   6  -105.165788004  -232.039403695    79.728736901  -0.67E-03*   0.15E-02*   0.85E-03*    0.17E-01   0.15E+03   QNRc2DIIS    9.
   7  -105.165795251  -232.024827893    79.714153853  -0.72E-05*   0.78E-03*   0.27E-03*    0.23E-02   0.15E+03   QNRc2DIIS    8.
   8  -105.165796254  -232.027011894    79.716336851  -0.10E-05*   0.78E-04*   0.50E-04     0.62E-03   0.15E+03   QNRc2DIIS    8.
   9  -105.165796280  -232.025879621    79.715204552  -0.26E-07*   0.16E-04    0.59E-05     0.57E-04   0.15E+03   QNRc2DIIS    8.
  10  -105.165796280  -232.025876107    79.715201037  -0.45E-09    0.57E-06    0.25E-06     0.11E-02   0.15E+03   QNRc2DIIS    8.

       Convergence after 10 Macro Iterations
--

 *****************************************************************************************************************************
 *                                                                                                                           *
 *                                             SCF/KS-DFT Program, Final results                                             *
 *                                                                                                                           *
 *                                                                                                                           *
 *                                                                                                                           *
 *                                                       Final Results                                                       *
 *                                                                                                                           *
 *****************************************************************************************************************************

::    Total SCF energy                               -105.1657962800
      One-electron energy                            -232.0258761066
      Two-electron energy                              79.7152010371
      Nuclear repulsion energy                         47.1448787895
      Kinetic energy (interpolated)                   120.1868859774
      Virial theorem                                    0.8750188960
      Total spin, S(S+1)                                0.0000000000
      Total spin, S                                     0.0000000000
      Max non-diagonal density matrix element           0.0000007242
      Max non-diagonal Fock matrix element              0.0000000702


      All orbitals with orbital energies smaller than  E(LUMO)+0.5 are printed

++    Molecular orbitals:
      -------------------

      Title: SCF orbitals

      Molecular orbitals for symmetry species 1: a  

          Orbital            1         2         3         4         5         6         7         8         9        10    
          Energy          -15.9494  -15.5170   -1.4749   -1.0908   -1.0908   -0.6178   -0.5570    0.0748    0.0967    0.0967
          Occ. No.          2.0000    2.0000    2.0000    2.0000    2.0000    2.0000    2.0000    0.0000    0.0000    0.0000

        1 N1     1s         0.6980   -0.7106   -0.0055   -0.0000   -0.0000   -0.0031   -0.0030   -0.0081   -0.0000   -0.0000
        2 N1     2s         0.0363    0.0161    1.0625    0.0000   -0.0000   -0.2044   -0.5586   -0.0952   -0.0000   -0.0000
        3 N1     *s         0.0199   -0.0902   -0.1103    0.0000   -0.0000    0.0855    0.1058   -0.0272   -0.0000    0.0000
        4 N1     *s        -0.0170    0.0681   -0.3717    0.0000    0.0000    0.3005   -0.2959   -7.5079    0.0000    0.0000
        5 N1     *s        -0.0144    0.0120   -0.2453   -0.0000    0.0000    0.2519   -0.9332  -23.2148    0.0000   -0.0000
        6 N1     *s        -0.0018    0.0018    0.0034   -0.0000    0.0000    0.0163   -0.3116  -31.8341    0.0000   -0.0000
        7 N1     2px        0.0000   -0.0000   -0.0000    0.9099    0.1719    0.0000   -0.0000   -0.0000    0.0168   -0.0989
        8 N1     *px        0.0000   -0.0000   -0.0000   -0.0591   -0.0112   -0.0000    0.0000   -0.0000   -0.0035    0.0209
        9 N1     *px        0.0000   -0.0000   -0.0000   -0.2290   -0.0433   -0.0000    0.0000   -0.0000   -0.0226    0.1329
       10 N1     *px       -0.0000   -0.0000    0.0000   -0.1961   -0.0370    0.0000    0.0000   -0.0000    0.0311   -0.1833
       11 N1     *px       -0.0000   -0.0000   -0.0000   -0.0004   -0.0001   -0.0000    0.0000   -0.0000   -0.1010    0.5952
       12 N1     2py        0.0000    0.0000   -0.0000    0.1719   -0.9099   -0.0000   -0.0000    0.0000    0.0989    0.0168
       13 N1     *py        0.0000   -0.0000    0.0000   -0.0112    0.0591   -0.0000    0.0000   -0.0000   -0.0209   -0.0035
       14 N1     *py        0.0000   -0.0000    0.0000   -0.0433    0.2290   -0.0000    0.0000   -0.0000   -0.1329   -0.0226
       15 N1     *py       -0.0000   -0.0000    0.0000   -0.0370    0.1961    0.0000    0.0000   -0.0000    0.1833    0.0311
       16 N1     *py        0.0000   -0.0000   -0.0000   -0.0001    0.0004   -0.0000    0.0000   -0.0000   -0.5952   -0.1010
       17 N1     2pz        0.0846   -0.0373    0.6166    0.0000   -0.0000   -1.1354    0.4030    0.0530   -0.0000   -0.0000
       18 N1     *pz       -0.0288   -0.0250   -0.0625   -0.0000    0.0000    0.1059    0.0264   -0.1720   -0.0000    0.0000
       19 N1     *pz       -0.0734    0.0428   -0.1574   -0.0000    0.0000    0.2563   -0.1217   -2.8993    0.0000   -0.0000
       20 N1     *pz       -0.0435    0.0118   -0.0898   -0.0000    0.0000    0.1223   -0.1632   -5.2832    0.0000   -0.0000
       21 N1     *pz       -0.0021    0.0001    0.0070   -0.0000    0.0000   -0.0108   -0.0158   -3.6467    0.0000   -0.0000
       22 N1     *d2-       0.0000   -0.0000    0.0000    0.0000   -0.0000    0.0000   -0.0000   -0.0000   -0.0000   -0.0000
       23 N1     *d2-      -0.0000   -0.0000   -0.0000   -0.0000    0.0000    0.0000    0.0000   -0.0000    0.0000    0.0000
       24 N1     *d2-      -0.0000   -0.0000   -0.0000   -0.0000    0.0000    0.0000   -0.0000   -0.0000    0.0000    0.0000
       25 N1     *d2-       0.0000   -0.0000    0.0000    0.0000   -0.0000    0.0000    0.0000   -0.0000    0.0000    0.0000
       26 N1     *d1-       0.0000    0.0000   -0.0000    0.0056   -0.0299   -0.0000    0.0000   -0.0000    0.0023    0.0004
       27 N1     *d1-       0.0000   -0.0000   -0.0000    0.0062   -0.0328    0.0000    0.0000   -0.0000    0.0184    0.0031
       28 N1     *d1-      -0.0000   -0.0000    0.0000    0.0012   -0.0062    0.0000    0.0000   -0.0000    0.1593    0.0270
       29 N1     *d1-      -0.0000   -0.0000    0.0000   -0.0001    0.0004    0.0000    0.0000   -0.0000   -0.0473   -0.0080
       30 N1     *d0        0.0076   -0.0049    0.0066    0.0000   -0.0000   -0.0189    0.0008   -0.0074   -0.0000   -0.0000
       31 N1     *d0       -0.0067   -0.0154    0.0094   -0.0000    0.0000   -0.0099    0.0149   -0.0463   -0.0000    0.0000
       32 N1     *d0       -0.0132   -0.0032    0.0229   -0.0000    0.0000   -0.0053   -0.0007   -0.3654   -0.0000    0.0000
       33 N1     *d0       -0.0033   -0.0005    0.0099   -0.0000    0.0000   -0.0079   -0.0074   -0.4034   -0.0000    0.0000
       34 N1     *d1+       0.0000   -0.0000   -0.0000    0.0299    0.0056   -0.0000    0.0000   -0.0000    0.0004   -0.0023
       35 N1     *d1+       0.0000   -0.0000   -0.0000    0.0328    0.0062    0.0000    0.0000   -0.0000    0.0031   -0.0184
       36 N1     *d1+      -0.0000   -0.0000    0.0000    0.0062    0.0012    0.0000    0.0000   -0.0000    0.0270   -0.1593
       37 N1     *d1+      -0.0000   -0.0000    0.0000   -0.0004   -0.0001    0.0000    0.0000   -0.0000   -0.0080    0.0473
       38 N1     *d2+       0.0000   -0.0000   -0.0000   -0.0000   -0.0000    0.0000    0.0000   -0.0000    0.0000    0.0000
       39 N1     *d2+      -0.0000    0.0000    0.0000   -0.0000   -0.0000   -0.0000   -0.0000    0.0000    0.0000   -0.0000
       40 N1     *d2+      -0.0000    0.0000    0.0000   -0.0000   -0.0000   -0.0000   -0.0000    0.0000    0.0000   -0.0000
       41 N1     *d2+      -0.0000    0.0000    0.0000    0.0000    0.0000   -0.0000   -0.0000    0.0000    0.0000   -0.0000
       42 N1     *f3-      -0.0000   -0.0000    0.0000   -0.0000    0.0000    0.0000   -0.0000   -0.0000    0.0000    0.0000
       43 N1     *f3-       0.0000   -0.0000   -0.0000    0.0000   -0.0000    0.0000    0.0000   -0.0000   -0.0000    0.0000
       44 N1     *f3-      -0.0000    0.0000    0.0000   -0.0000    0.0000    0.0000    0.0000   -0.0000    0.0000    0.0000
       45 N1     *f2-      -0.0000    0.0000   -0.0000   -0.0000    0.0000    0.0000   -0.0000   -0.0000    0.0000    0.0000
       46 N1     *f2-      -0.0000   -0.0000   -0.0000    0.0000   -0.0000    0.0000   -0.0000   -0.0000   -0.0000    0.0000
       47 N1     *f2-      -0.0000   -0.0000    0.0000    0.0000   -0.0000    0.0000    0.0000   -0.0000    0.0000    0.0000
       48 N1     *f1-       0.0000   -0.0000   -0.0000    0.0019   -0.0098    0.0000    0.0000   -0.0000    0.0002    0.0000
       49 N1     *f1-      -0.0000   -0.0000    0.0000   -0.0003    0.0018    0.0000    0.0000   -0.0000    0.0379    0.0064
       50 N1     *f1-      -0.0000   -0.0000    0.0000   -0.0002    0.0010    0.0000    0.0000   -0.0000    0.0474    0.0080
       51 N1     *f0        0.0028   -0.0021   -0.0009   -0.0000    0.0000   -0.0062    0.0004   -0.0020   -0.0000    0.0000
       52 N1     *f0       -0.0049   -0.0067    0.0013   -0.0000    0.0000    0.0025    0.0090    0.0615   -0.0000    0.0000
       53 N1     *f0       -0.0020   -0.0012    0.0029   -0.0000    0.0000    0.0009    0.0029    0.0079   -0.0000    0.0000
       54 N1     *f1+       0.0000   -0.0000   -0.0000    0.0098    0.0019    0.0000    0.0000   -0.0000    0.0000   -0.0002
       55 N1     *f1+      -0.0000   -0.0000    0.0000   -0.0018   -0.0003    0.0000    0.0000   -0.0000    0.0064   -0.0379
       56 N1     *f1+      -0.0000   -0.0000    0.0000   -0.0010   -0.0002    0.0000    0.0000   -0.0000    0.0080   -0.0474
       57 N1     *f2+      -0.0000    0.0000    0.0000   -0.0000   -0.0000   -0.0000   -0.0000   -0.0000    0.0000   -0.0000
       58 N1     *f2+      -0.0000    0.0000    0.0000    0.0000    0.0000   -0.0000   -0.0000    0.0000    0.0000   -0.0000
       59 N1     *f2+      -0.0000    0.0000    0.0000    0.0000    0.0000   -0.0000   -0.0000    0.0000    0.0000   -0.0000
       60 N1     *f3+       0.0000    0.0000   -0.0000    0.0000    0.0000   -0.0000    0.0000    0.0000   -0.0000    0.0000
       61 N1     *f3+      -0.0000    0.0000    0.0000    0.0000    0.0000   -0.0000   -0.0000    0.0000   -0.0000   -0.0000
       62 N1     *f3+       0.0000   -0.0000   -0.0000    0.0000    0.0000   -0.0000   -0.0000    0.0000   -0.0000    0.0000
       63 N1     *g4-       0.0000   -0.0000    0.0000   -0.0000   -0.0000   -0.0000   -0.0000   -0.0000   -0.0000   -0.0000
       64 N1     *g4-      -0.0000    0.0000   -0.0000    0.0000    0.0000    0.0000    0.0000    0.0000    0.0000    0.0000
       65 N1     *g3-       0.0000   -0.0000   -0.0000    0.0000   -0.0000    0.0000    0.0000   -0.0000   -0.0000    0.0000
       66 N1     *g3-      -0.0000   -0.0000    0.0000   -0.0000    0.0000   -0.0000    0.0000   -0.0000   -0.0000   -0.0000
       67 N1     *g2-      -0.0000    0.0000   -0.0000   -0.0000    0.0000   -0.0000    0.0000   -0.0000   -0.0000    0.0000
       68 N1     *g2-      -0.0000   -0.0000   -0.0000    0.0000   -0.0000    0.0000   -0.0000    0.0000   -0.0000   -0.0000
       69 N1     *g1-      -0.0000   -0.0000   -0.0000    0.0005   -0.0025    0.0000    0.0000   -0.0000    0.0014    0.0002
       70 N1     *g1-      -0.0000    0.0000    0.0000   -0.0004    0.0021    0.0000    0.0000   -0.0000    0.0103    0.0017
       71 N1     *g0        0.0012   -0.0006   -0.0005   -0.0000    0.0000   -0.0022    0.0008    0.0051    0.0000    0.0000
       72 N1     *g0       -0.0021   -0.0014    0.0007   -0.0000    0.0000    0.0016    0.0027    0.0215    0.0000    0.0000
       73 N1     *g1+      -0.0000   -0.0000   -0.0000    0.0025    0.0005    0.0000    0.0000   -0.0000    0.0002   -0.0014
       74 N1     *g1+      -0.0000    0.0000    0.0000   -0.0021   -0.0004    0.0000    0.0000   -0.0000    0.0017   -0.0103
       75 N1     *g2+      -0.0000    0.0000    0.0000    0.0000    0.0000   -0.0000   -0.0000    0.0000    0.0000   -0.0000
       76 N1     *g2+      -0.0000    0.0000    0.0000    0.0000    0.0000   -0.0000   -0.0000    0.0000    0.0000    0.0000
       77 N1     *g3+      -0.0000    0.0000    0.0000   -0.0000   -0.0000   -0.0000   -0.0000    0.0000   -0.0000   -0.0000
       78 N1     *g3+       0.0000    0.0000   -0.0000    0.0000    0.0000    0.0000   -0.0000    0.0000   -0.0000   -0.0000
       79 N1     *g4+       0.0000   -0.0000    0.0000   -0.0000    0.0000   -0.0000   -0.0000   -0.0000   -0.0000   -0.0000
       80 N1     *g4+      -0.0000    0.0000   -0.0000    0.0000   -0.0000    0.0000    0.0000    0.0000    0.0000    0.0000
       81 N2     1s         0.6980    0.7106   -0.0055   -0.0000    0.0000   -0.0031    0.0030    0.0081   -0.0000   -0.0000
       82 N2     2s         0.0363   -0.0161    1.0625    0.0000   -0.0000   -0.2044    0.5586    0.0952    0.0000   -0.0000
       83 N2     *s         0.0199    0.0902   -0.1103    0.0000   -0.0000    0.0855   -0.1058    0.0272    0.0000   -0.0000
       84 N2     *s        -0.0170   -0.0681   -0.3717    0.0000   -0.0000    0.3005    0.2959    7.5079   -0.0000   -0.0000
       85 N2     *s        -0.0144   -0.0120   -0.2453   -0.0000   -0.0000    0.2519    0.9332   23.2148   -0.0000    0.0000
       86 N2     *s        -0.0018   -0.0018    0.0034   -0.0000   -0.0000    0.0163    0.3116   31.8341   -0.0000    0.0000
       87 N2     2px        0.0000   -0.0000   -0.0000    0.9099    0.1719    0.0000    0.0000   -0.0000    0.0168   -0.0989
       88 N2     *px        0.0000    0.0000   -0.0000   -0.0591   -0.0112   -0.0000   -0.0000    0.0000   -0.0035    0.0209
       89 N2     *px        0.0000    0.0000   -0.0000   -0.2290   -0.0433   -0.0000   -0.0000    0.0000   -0.0226    0.1329
       90 N2     *px       -0.0000    0.0000    0.0000   -0.1961   -0.0370    0.0000   -0.0000    0.0000    0.0311   -0.1833
       91 N2     *px       -0.0000    0.0000   -0.0000   -0.0004   -0.0001    0.0000   -0.0000    0.0000   -0.1010    0.5952
       92 N2     2py        0.0000    0.0000   -0.0000    0.1719   -0.9099   -0.0000   -0.0000   -0.0000    0.0989    0.0168
       93 N2     *py       -0.0000    0.0000   -0.0000   -0.0112    0.0591   -0.0000   -0.0000    0.0000   -0.0209   -0.0035
       94 N2     *py       -0.0000    0.0000    0.0000   -0.0433    0.2290   -0.0000   -0.0000    0.0000   -0.1329   -0.0226
       95 N2     *py       -0.0000    0.0000    0.0000   -0.0370    0.1961    0.0000   -0.0000    0.0000    0.1833    0.0311
       96 N2     *py       -0.0000    0.0000   -0.0000   -0.0001    0.0004    0.0000   -0.0000    0.0000   -0.5952   -0.1010
       97 N2     2pz       -0.0846   -0.0373   -0.6166   -0.0000   -0.0000    1.1354    0.4030    0.0530   -0.0000    0.0000
       98 N2     *pz        0.0288   -0.0250    0.0625    0.0000   -0.0000   -0.1059    0.0264   -0.1720   -0.0000    0.0000
       99 N2     *pz        0.0734    0.0428    0.1574    0.0000   -0.0000   -0.2563   -0.1217   -2.8993    0.0000   -0.0000
      100 N2     *pz        0.0435    0.0118    0.0898    0.0000   -0.0000   -0.1223   -0.1632   -5.2832    0.0000   -0.0000
      101 N2     *pz        0.0021    0.0001   -0.0070    0.0000   -0.0000    0.0108   -0.0158   -3.6467   -0.0000   -0.0000
      102 N2     *d2-      -0.0000   -0.0000   -0.0000    0.0000   -0.0000   -0.0000   -0.0000    0.0000   -0.0000   -0.0000
      103 N2     *d2-       0.0000   -0.0000    0.0000   -0.0000    0.0000   -0.0000    0.0000    0.0000   -0.0000   -0.0000
      104 N2     *d2-       0.0000    0.0000    0.0000   -0.0000    0.0000   -0.0000   -0.0000    0.0000   -0.0000   -0.0000
      105 N2     *d2-      -0.0000    0.0000   -0.0000    0.0000   -0.0000   -0.0000   -0.0000    0.0000   -0.0000   -0.0000
      106 N2     *d1-      -0.0000   -0.0000    0.0000   -0.0056    0.0299    0.0000    0.0000   -0.0000   -0.0023   -0.0004
      107 N2     *d1-       0.0000   -0.0000    0.0000   -0.0062    0.0328   -0.0000    0.0000   -0.0000   -0.0184   -0.0031
      108 N2     *d1-       0.0000   -0.0000   -0.0000   -0.0012    0.0062   -0.0000    0.0000   -0.0000   -0.1593   -0.0270
      109 N2     *d1-       0.0000   -0.0000   -0.0000    0.0001   -0.0004   -0.0000    0.0000   -0.0000    0.0473    0.0080
      110 N2     *d0        0.0076    0.0049    0.0066    0.0000   -0.0000   -0.0189   -0.0008    0.0074    0.0000   -0.0000
      111 N2     *d0       -0.0067    0.0154    0.0094   -0.0000    0.0000   -0.0099   -0.0149    0.0463    0.0000   -0.0000
      112 N2     *d0       -0.0132    0.0032    0.0229   -0.0000    0.0000   -0.0053    0.0007    0.3654    0.0000   -0.0000
      113 N2     *d0       -0.0033    0.0005    0.0099   -0.0000    0.0000   -0.0079    0.0074    0.4034    0.0000   -0.0000
      114 N2     *d1+      -0.0000   -0.0000    0.0000   -0.0299   -0.0056    0.0000    0.0000   -0.0000   -0.0004    0.0023
      115 N2     *d1+      -0.0000   -0.0000    0.0000   -0.0328   -0.0062   -0.0000    0.0000   -0.0000   -0.0031    0.0184
      116 N2     *d1+       0.0000   -0.0000   -0.0000   -0.0062   -0.0012   -0.0000    0.0000   -0.0000   -0.0270    0.1593
      117 N2     *d1+       0.0000   -0.0000   -0.0000    0.0004    0.0001   -0.0000    0.0000   -0.0000    0.0080   -0.0473
      118 N2     *d2+       0.0000    0.0000    0.0000   -0.0000   -0.0000   -0.0000   -0.0000    0.0000    0.0000   -0.0000
      119 N2     *d2+       0.0000   -0.0000   -0.0000   -0.0000   -0.0000    0.0000    0.0000   -0.0000   -0.0000    0.0000
      120 N2     *d2+       0.0000   -0.0000   -0.0000   -0.0000   -0.0000    0.0000    0.0000   -0.0000   -0.0000    0.0000
      121 N2     *d2+       0.0000   -0.0000   -0.0000    0.0000    0.0000    0.0000    0.0000   -0.0000   -0.0000    0.0000
      122 N2     *f3-      -0.0000    0.0000    0.0000   -0.0000    0.0000    0.0000    0.0000    0.0000    0.0000   -0.0000
      123 N2     *f3-       0.0000    0.0000   -0.0000    0.0000   -0.0000    0.0000   -0.0000    0.0000    0.0000   -0.0000
      124 N2     *f3-      -0.0000   -0.0000    0.0000    0.0000   -0.0000    0.0000   -0.0000    0.0000    0.0000    0.0000
      125 N2     *f2-      -0.0000    0.0000   -0.0000    0.0000   -0.0000    0.0000    0.0000   -0.0000   -0.0000    0.0000
      126 N2     *f2-      -0.0000    0.0000   -0.0000   -0.0000    0.0000    0.0000    0.0000   -0.0000    0.0000    0.0000
      127 N2     *f2-      -0.0000   -0.0000    0.0000   -0.0000    0.0000    0.0000   -0.0000   -0.0000    0.0000    0.0000
      128 N2     *f1-      -0.0000    0.0000   -0.0000    0.0019   -0.0098    0.0000   -0.0000    0.0000    0.0002    0.0000
      129 N2     *f1-      -0.0000    0.0000    0.0000   -0.0003    0.0018    0.0000   -0.0000    0.0000    0.0379    0.0064
      130 N2     *f1-      -0.0000    0.0000    0.0000   -0.0002    0.0010    0.0000   -0.0000    0.0000    0.0474    0.0080
      131 N2     *f0       -0.0028   -0.0021    0.0009    0.0000   -0.0000    0.0062    0.0004   -0.0020    0.0000    0.0000
      132 N2     *f0        0.0049   -0.0067   -0.0013    0.0000   -0.0000   -0.0025    0.0090    0.0615   -0.0000    0.0000
      133 N2     *f0        0.0020   -0.0012   -0.0029    0.0000   -0.0000   -0.0009    0.0029    0.0079   -0.0000    0.0000
      134 N2     *f1+       0.0000    0.0000   -0.0000    0.0098    0.0019    0.0000   -0.0000    0.0000    0.0000   -0.0002
      135 N2     *f1+      -0.0000    0.0000    0.0000   -0.0018   -0.0003    0.0000   -0.0000    0.0000    0.0064   -0.0379
      136 N2     *f1+      -0.0000    0.0000    0.0000   -0.0010   -0.0002    0.0000   -0.0000    0.0000    0.0080   -0.0474
      137 N2     *f2+      -0.0000    0.0000    0.0000    0.0000    0.0000   -0.0000   -0.0000   -0.0000    0.0000   -0.0000
      138 N2     *f2+      -0.0000    0.0000    0.0000   -0.0000   -0.0000   -0.0000   -0.0000    0.0000    0.0000   -0.0000
      139 N2     *f2+      -0.0000    0.0000    0.0000   -0.0000   -0.0000   -0.0000   -0.0000    0.0000   -0.0000   -0.0000
      140 N2     *f3+       0.0000   -0.0000   -0.0000    0.0000    0.0000   -0.0000   -0.0000   -0.0000    0.0000   -0.0000
      141 N2     *f3+      -0.0000   -0.0000    0.0000   -0.0000   -0.0000   -0.0000    0.0000   -0.0000    0.0000    0.0000
      142 N2     *f3+       0.0000    0.0000   -0.0000   -0.0000   -0.0000   -0.0000    0.0000   -0.0000   -0.0000    0.0000
      143 N2     *g4-      -0.0000   -0.0000   -0.0000   -0.0000   -0.0000   -0.0000   -0.0000   -0.0000    0.0000   -0.0000
      144 N2     *g4-       0.0000   -0.0000    0.0000    0.0000    0.0000   -0.0000    0.0000    0.0000   -0.0000   -0.0000
      145 N2     *g3-       0.0000   -0.0000    0.0000    0.0000   -0.0000   -0.0000    0.0000   -0.0000   -0.0000    0.0000
      146 N2     *g3-       0.0000   -0.0000   -0.0000   -0.0000   -0.0000    0.0000    0.0000   -0.0000   -0.0000    0.0000
      147 N2     *g2-       0.0000    0.0000    0.0000   -0.0000    0.0000    0.0000    0.0000    0.0000   -0.0000    0.0000
      148 N2     *g2-       0.0000   -0.0000   -0.0000    0.0000   -0.0000   -0.0000   -0.0000    0.0000   -0.0000   -0.0000
      149 N2     *g1-       0.0000   -0.0000    0.0000   -0.0005    0.0025   -0.0000    0.0000   -0.0000   -0.0014   -0.0002
      150 N2     *g1-       0.0000    0.0000   -0.0000    0.0004   -0.0021   -0.0000    0.0000   -0.0000   -0.0103   -0.0017
      151 N2     *g0        0.0012    0.0006   -0.0005   -0.0000    0.0000   -0.0022   -0.0008   -0.0051    0.0000   -0.0000
      152 N2     *g0       -0.0021    0.0014    0.0007   -0.0000    0.0000    0.0016   -0.0027   -0.0215    0.0000   -0.0000
      153 N2     *g1+       0.0000   -0.0000    0.0000   -0.0025   -0.0005   -0.0000    0.0000   -0.0000   -0.0002    0.0014
      154 N2     *g1+       0.0000    0.0000   -0.0000    0.0021    0.0004   -0.0000    0.0000   -0.0000   -0.0017    0.0103
      155 N2     *g2+       0.0000   -0.0000    0.0000    0.0000    0.0000    0.0000    0.0000    0.0000   -0.0000    0.0000
      156 N2     *g2+       0.0000   -0.0000   -0.0000    0.0000    0.0000    0.0000    0.0000   -0.0000    0.0000    0.0000
      157 N2     *g3+      -0.0000    0.0000   -0.0000   -0.0000   -0.0000    0.0000   -0.0000    0.0000   -0.0000   -0.0000
      158 N2     *g3+      -0.0000    0.0000    0.0000    0.0000    0.0000   -0.0000   -0.0000    0.0000   -0.0000   -0.0000
      159 N2     *g4+       0.0000    0.0000    0.0000   -0.0000    0.0000    0.0000    0.0000    0.0000   -0.0000   -0.0000
      160 N2     *g4+      -0.0000   -0.0000   -0.0000    0.0000   -0.0000   -0.0000   -0.0000   -0.0000    0.0000    0.0000

          Orbital           11        12        13        14        15        16        17        18        19        20    
          Energy            0.1001    0.1236    0.1236    0.1387    0.2519    0.3274    0.3274    0.3362    0.3362    0.3709
          Occ. No.          0.0000    0.0000    0.0000    0.0000    0.0000    0.0000    0.0000    0.0000    0.0000    0.0000

        1 N1     1s        -0.0018   -0.0000   -0.0000   -0.0016   -0.0111    0.0000    0.0000    0.0000   -0.0000   -0.0104
        2 N1     2s        -0.0466   -0.0000   -0.0000    0.0616    0.1037    0.0000    0.0000    0.0000   -0.0000   -0.1700
        3 N1     *s        -0.0407   -0.0000   -0.0000    0.4035    0.0242    0.0000    0.0000   -0.0000   -0.0000    0.6509
        4 N1     *s         0.1705   -0.0000   -0.0000    0.9995  -15.7201    0.0000    0.0000   -0.0000   -0.0000    2.2114
        5 N1     *s        -0.2159    0.0000    0.0000    1.7612  -52.7267    0.0000    0.0000    0.0000    0.0000    2.4190
        6 N1     *s         0.7803    0.0000    0.0000   -1.1532  -57.7943   -0.0000    0.0000    0.0000    0.0000   -1.5287
        7 N1     2px       -0.0000    0.0000   -0.0089    0.0000    0.0000   -0.0000   -0.0000    0.0002    0.1477   -0.0000
        8 N1     *px       -0.0000    0.0000   -0.1696   -0.0000   -0.0000    0.0000    0.0000   -0.0005   -0.3570    0.0000
        9 N1     *px       -0.0000    0.0000   -1.6951   -0.0000   -0.0000    0.0000    0.0000   -0.0047   -3.5845    0.0000
       10 N1     *px        0.0000    0.0002   -6.4304   -0.0000   -0.0000    0.0000    0.0000   -0.0188  -14.3193    0.0000
       11 N1     *px        0.0000    0.0002   -7.2759   -0.0000   -0.0000    0.0000   -0.0000   -0.0080   -6.0781   -0.0000
       12 N1     2py       -0.0000   -0.0089   -0.0000    0.0000    0.0000    0.0000   -0.0000    0.1477   -0.0002   -0.0000
       13 N1     *py        0.0000   -0.1696   -0.0000   -0.0000   -0.0000    0.0000    0.0000   -0.3570    0.0005    0.0000
       14 N1     *py        0.0000   -1.6951   -0.0000   -0.0000   -0.0000    0.0000   -0.0000   -3.5845    0.0047    0.0000
       15 N1     *py        0.0000   -6.4304   -0.0002   -0.0000   -0.0000    0.0000   -0.0000  -14.3193    0.0188   -0.0000
       16 N1     *py       -0.0000   -7.2759   -0.0002   -0.0000   -0.0000   -0.0000   -0.0000   -6.0781    0.0080   -0.0000
       17 N1     2pz        0.1711   -0.0000   -0.0000   -0.0641   -0.0978   -0.0000    0.0000   -0.0000   -0.0000   -0.0617
       18 N1     *pz        0.0057   -0.0000   -0.0000   -0.0125   -0.3390    0.0000    0.0000   -0.0000   -0.0000    0.0158
       19 N1     *pz       -0.1190   -0.0000    0.0000   -1.1087   -6.2066    0.0000    0.0000   -0.0000   -0.0000   -2.0949
       20 N1     *pz       -0.3745   -0.0000    0.0000   -5.3521  -12.2089    0.0000    0.0000    0.0000    0.0000  -10.1312
       21 N1     *pz       -2.8636    0.0000    0.0000   -5.1367   -5.1889    0.0000    0.0000    0.0000    0.0000   -4.8891
       22 N1     *d2-      -0.0000    0.0000   -0.0000    0.0000    0.0000   -0.0014    0.0000   -0.0000   -0.0000   -0.0000
       23 N1     *d2-       0.0000    0.0000    0.0000   -0.0000    0.0000    0.0392   -0.0000    0.0000    0.0000    0.0000
       24 N1     *d2-      -0.0000    0.0000    0.0000    0.0000    0.0000   -0.1011    0.0000    0.0000    0.0000   -0.0000
       25 N1     *d2-      -0.0000    0.0000    0.0000    0.0000   -0.0000    0.5532   -0.0000    0.0000    0.0000    0.0000
       26 N1     *d1-       0.0000   -0.0070   -0.0000   -0.0000   -0.0000    0.0000   -0.0000   -0.0203    0.0000    0.0000
       27 N1     *d1-       0.0000   -0.1719   -0.0000   -0.0000   -0.0000    0.0000   -0.0000   -0.3781    0.0005   -0.0000
       28 N1     *d1-       0.0000   -0.7448   -0.0000   -0.0000   -0.0000    0.0000   -0.0000   -1.6298    0.0021   -0.0000
       29 N1     *d1-       0.0000   -1.3987   -0.0000   -0.0000   -0.0000   -0.0000   -0.0000   -3.2579    0.0043   -0.0000
       30 N1     *d0        0.0052   -0.0000   -0.0000    0.0014   -0.0158    0.0000    0.0000   -0.0000   -0.0000    0.0048
       31 N1     *d0       -0.0031   -0.0000   -0.0000   -0.1117   -0.0754    0.0000    0.0000   -0.0000   -0.0000   -0.2108
       32 N1     *d0       -0.0158   -0.0000   -0.0000   -0.6930   -0.6228    0.0000    0.0000   -0.0000   -0.0000   -1.2730
       33 N1     *d0       -0.2518   -0.0000   -0.0000   -1.3011   -0.6085    0.0000    0.0000   -0.0000   -0.0000   -2.8419
       34 N1     *d1+       0.0000    0.0000   -0.0070   -0.0000   -0.0000    0.0000    0.0000   -0.0000   -0.0203    0.0000
       35 N1     *d1+      -0.0000    0.0000   -0.1719   -0.0000   -0.0000    0.0000    0.0000   -0.0005   -0.3781   -0.0000
       36 N1     *d1+       0.0000    0.0000   -0.7448   -0.0000   -0.0000    0.0000   -0.0000   -0.0021   -1.6298   -0.0000
       37 N1     *d1+       0.0000    0.0000   -1.3987   -0.0000   -0.0000    0.0000   -0.0000   -0.0043   -3.2579   -0.0000
       38 N1     *d2+      -0.0000   -0.0000    0.0000   -0.0000   -0.0000   -0.0000   -0.0014   -0.0000    0.0000   -0.0000
       39 N1     *d2+       0.0000   -0.0000    0.0000    0.0000    0.0000    0.0000    0.0392   -0.0000    0.0000    0.0000
       40 N1     *d2+       0.0000   -0.0000    0.0000    0.0000    0.0000   -0.0000   -0.1011   -0.0000    0.0000    0.0000
       41 N1     *d2+       0.0000   -0.0000    0.0000    0.0000    0.0000    0.0000    0.5532    0.0000   -0.0000    0.0000
       42 N1     *f3-      -0.0000    0.0000    0.0000   -0.0000    0.0000   -0.0000   -0.0000    0.0000   -0.0000    0.0000
       43 N1     *f3-       0.0000   -0.0000   -0.0000    0.0000   -0.0000    0.0000   -0.0000   -0.0000   -0.0000   -0.0000
       44 N1     *f3-      -0.0000    0.0000   -0.0000    0.0000   -0.0000    0.0000    0.0000   -0.0000    0.0000   -0.0000
       45 N1     *f2-      -0.0000    0.0000    0.0000   -0.0000    0.0000   -0.0011    0.0000    0.0000    0.0000    0.0000
       46 N1     *f2-      -0.0000    0.0000    0.0000    0.0000    0.0000    0.0068   -0.0000    0.0000    0.0000   -0.0000
       47 N1     *f2-      -0.0000    0.0000    0.0000    0.0000    0.0000    0.0387   -0.0000    0.0000    0.0000   -0.0000
       48 N1     *f1-       0.0000   -0.0154   -0.0000   -0.0000   -0.0000    0.0000   -0.0000   -0.0332    0.0000   -0.0000
       49 N1     *f1-       0.0000   -0.0745   -0.0000   -0.0000   -0.0000    0.0000   -0.0000   -0.1585    0.0002   -0.0000
       50 N1     *f1-       0.0000   -0.1196   -0.0000   -0.0000   -0.0000   -0.0000   -0.0000   -0.2861    0.0004   -0.0000
       51 N1     *f0        0.0030   -0.0000   -0.0000   -0.0070   -0.0023    0.0000    0.0000   -0.0000   -0.0000   -0.0076
       52 N1     *f0       -0.0011   -0.0000   -0.0000   -0.0704    0.1645    0.0000   -0.0000   -0.0000   -0.0000   -0.1234
       53 N1     *f0       -0.0147   -0.0000   -0.0000   -0.1215    0.1109    0.0000    0.0000   -0.0000   -0.0000   -0.2646
       54 N1     *f1+       0.0000    0.0000   -0.0154   -0.0000   -0.0000    0.0000    0.0000   -0.0000   -0.0332   -0.0000
       55 N1     *f1+      -0.0000    0.0000   -0.0745   -0.0000   -0.0000    0.0000   -0.0000   -0.0002   -0.1585   -0.0000
       56 N1     *f1+       0.0000    0.0000   -0.1196   -0.0000   -0.0000    0.0000   -0.0000   -0.0004   -0.2861   -0.0000
       57 N1     *f2+       0.0000   -0.0000    0.0000    0.0000    0.0000   -0.0000   -0.0011   -0.0000    0.0000    0.0000
       58 N1     *f2+       0.0000   -0.0000    0.0000    0.0000    0.0000    0.0000    0.0068   -0.0000    0.0000    0.0000
       59 N1     *f2+       0.0000   -0.0000    0.0000    0.0000    0.0000    0.0000    0.0387   -0.0000    0.0000    0.0000
       60 N1     *f3+      -0.0000    0.0000    0.0000    0.0000    0.0000    0.0000   -0.0000    0.0000    0.0000   -0.0000
       61 N1     *f3+      -0.0000   -0.0000   -0.0000   -0.0000    0.0000    0.0000    0.0000   -0.0000   -0.0000    0.0000
       62 N1     *f3+       0.0000   -0.0000   -0.0000   -0.0000    0.0000    0.0000    0.0000    0.0000   -0.0000    0.0000
       63 N1     *g4-      -0.0000    0.0000   -0.0000   -0.0000   -0.0000   -0.0000    0.0000   -0.0000    0.0000    0.0000
       64 N1     *g4-       0.0000   -0.0000    0.0000   -0.0000   -0.0000   -0.0000   -0.0000   -0.0000    0.0000   -0.0000
       65 N1     *g3-      -0.0000   -0.0000   -0.0000   -0.0000   -0.0000    0.0000    0.0000   -0.0000   -0.0000   -0.0000
       66 N1     *g3-      -0.0000    0.0000    0.0000    0.0000   -0.0000    0.0000   -0.0000   -0.0000   -0.0000   -0.0000
       67 N1     *g2-      -0.0000   -0.0000    0.0000   -0.0000    0.0000   -0.0049    0.0000    0.0000    0.0000    0.0000
       68 N1     *g2-      -0.0000    0.0000    0.0000    0.0000   -0.0000    0.0117   -0.0000    0.0000    0.0000   -0.0000
       69 N1     *g1-      -0.0000   -0.0057   -0.0000   -0.0000   -0.0000   -0.0000   -0.0000   -0.0115    0.0000   -0.0000
       70 N1     *g1-       0.0000   -0.0120   -0.0000   -0.0000   -0.0000    0.0000    0.0000   -0.0280    0.0000   -0.0000
       71 N1     *g0        0.0031   -0.0000   -0.0000   -0.0035    0.0124    0.0000   -0.0000   -0.0000   -0.0000   -0.0001
       72 N1     *g0       -0.0019   -0.0000   -0.0000   -0.0161    0.0578    0.0000   -0.0000   -0.0000   -0.0000   -0.0333
       73 N1     *g1+      -0.0000    0.0000   -0.0057    0.0000   -0.0000    0.0000   -0.0000   -0.0000   -0.0115   -0.0000
       74 N1     *g1+      -0.0000    0.0000   -0.0120   -0.0000   -0.0000    0.0000   -0.0000   -0.0000   -0.0280   -0.0000
       75 N1     *g2+       0.0000   -0.0000    0.0000    0.0000    0.0000   -0.0000   -0.0049   -0.0000    0.0000    0.0000
       76 N1     *g2+       0.0000   -0.0000    0.0000   -0.0000    0.0000    0.0000    0.0117   -0.0000    0.0000   -0.0000
       77 N1     *g3+      -0.0000   -0.0000    0.0000    0.0000    0.0000   -0.0000   -0.0000   -0.0000    0.0000    0.0000
       78 N1     *g3+       0.0000   -0.0000   -0.0000   -0.0000    0.0000    0.0000    0.0000    0.0000   -0.0000    0.0000
       79 N1     *g4+       0.0000    0.0000   -0.0000    0.0000   -0.0000   -0.0000    0.0000    0.0000    0.0000    0.0000
       80 N1     *g4+       0.0000    0.0000    0.0000   -0.0000    0.0000    0.0000   -0.0000    0.0000   -0.0000    0.0000
       81 N2     1s        -0.0018    0.0000    0.0000   -0.0016    0.0111   -0.0000   -0.0000    0.0000    0.0000   -0.0104
       82 N2     2s        -0.0466    0.0000   -0.0000    0.0616   -0.1037   -0.0000   -0.0000    0.0000    0.0000   -0.1700
       83 N2     *s        -0.0407    0.0000    0.0000    0.4035   -0.0242   -0.0000   -0.0000    0.0000    0.0000    0.6509
       84 N2     *s         0.1705    0.0000    0.0000    0.9995   15.7201   -0.0000   -0.0000    0.0000    0.0000    2.2114
       85 N2     *s        -0.2159   -0.0000   -0.0000    1.7612   52.7267   -0.0000   -0.0000   -0.0000   -0.0000    2.4190
       86 N2     *s         0.7803   -0.0000   -0.0000   -1.1532   57.7943    0.0000   -0.0000   -0.0000   -0.0000   -1.5287
       87 N2     2px        0.0000   -0.0000    0.0089    0.0000   -0.0000   -0.0000    0.0000   -0.0002   -0.1477   -0.0000
       88 N2     *px        0.0000   -0.0000    0.1696    0.0000    0.0000   -0.0000   -0.0000    0.0005    0.3570    0.0000
       89 N2     *px        0.0000   -0.0000    1.6951    0.0000    0.0000   -0.0000   -0.0000    0.0047    3.5845    0.0000
       90 N2     *px       -0.0000   -0.0002    6.4304    0.0000    0.0000   -0.0000   -0.0000    0.0188   14.3193    0.0000
       91 N2     *px       -0.0000   -0.0002    7.2759    0.0000    0.0000   -0.0000    0.0000    0.0080    6.0781   -0.0000
       92 N2     2py        0.0000    0.0089    0.0000   -0.0000   -0.0000    0.0000    0.0000   -0.1477    0.0002   -0.0000
       93 N2     *py       -0.0000    0.1696    0.0000    0.0000    0.0000   -0.0000    0.0000    0.3570   -0.0005    0.0000
       94 N2     *py       -0.0000    1.6951    0.0000    0.0000    0.0000   -0.0000    0.0000    3.5845   -0.0047    0.0000
       95 N2     *py       -0.0000    6.4304    0.0002    0.0000    0.0000   -0.0000    0.0000   14.3193   -0.0188    0.0000
       96 N2     *py       -0.0000    7.2759    0.0002    0.0000    0.0000    0.0000    0.0000    6.0781   -0.0080   -0.0000
       97 N2     2pz       -0.1711   -0.0000   -0.0000    0.0641   -0.0978   -0.0000    0.0000   -0.0000   -0.0000    0.0617
       98 N2     *pz       -0.0057   -0.0000   -0.0000    0.0125   -0.3390    0.0000    0.0000   -0.0000   -0.0000   -0.0158
       99 N2     *pz        0.1190    0.0000   -0.0000    1.1087   -6.2066    0.0000    0.0000   -0.0000   -0.0000    2.0949
      100 N2     *pz        0.3745    0.0000    0.0000    5.3521  -12.2089   -0.0000    0.0000    0.0000    0.0000   10.1312
      101 N2     *pz        2.8636    0.0000    0.0000    5.1367   -5.1889   -0.0000    0.0000    0.0000    0.0000    4.8891
      102 N2     *d2-      -0.0000    0.0000   -0.0000    0.0000   -0.0000   -0.0014    0.0000    0.0000    0.0000   -0.0000
      103 N2     *d2-       0.0000   -0.0000   -0.0000    0.0000   -0.0000    0.0392   -0.0000   -0.0000   -0.0000    0.0000
      104 N2     *d2-       0.0000   -0.0000   -0.0000   -0.0000   -0.0000   -0.1011    0.0000   -0.0000   -0.0000    0.0000
      105 N2     *d2-       0.0000   -0.0000   -0.0000   -0.0000   -0.0000    0.5532   -0.0000   -0.0000   -0.0000    0.0000
      106 N2     *d1-       0.0000   -0.0070   -0.0000   -0.0000   -0.0000    0.0000   -0.0000   -0.0203    0.0000   -0.0000
      107 N2     *d1-       0.0000   -0.1719   -0.0000   -0.0000   -0.0000    0.0000   -0.0000   -0.3781    0.0005    0.0000
      108 N2     *d1-       0.0000   -0.7448   -0.0000    0.0000   -0.0000    0.0000   -0.0000   -1.6298    0.0021    0.0000
      109 N2     *d1-       0.0000   -1.3987   -0.0000    0.0000   -0.0000    0.0000   -0.0000   -3.2579    0.0043    0.0000
      110 N2     *d0        0.0052    0.0000    0.0000    0.0014    0.0158   -0.0000   -0.0000    0.0000    0.0000    0.0048
      111 N2     *d0       -0.0031    0.0000    0.0000   -0.1117    0.0754   -0.0000   -0.0000    0.0000    0.0000   -0.2108
      112 N2     *d0       -0.0158    0.0000    0.0000   -0.6930    0.6228   -0.0000   -0.0000    0.0000    0.0000   -1.2730
      113 N2     *d0       -0.2518    0.0000    0.0000   -1.3011    0.6085    0.0000   -0.0000    0.0000    0.0000   -2.8419
      114 N2     *d1+      -0.0000    0.0000   -0.0070   -0.0000   -0.0000    0.0000    0.0000   -0.0000   -0.0203   -0.0000
      115 N2     *d1+      -0.0000    0.0000   -0.1719   -0.0000   -0.0000   -0.0000    0.0000   -0.0005   -0.3781    0.0000
      116 N2     *d1+      -0.0000    0.0000   -0.7448   -0.0000   -0.0000   -0.0000    0.0000   -0.0021   -1.6298    0.0000
      117 N2     *d1+       0.0000    0.0000   -1.3987    0.0000   -0.0000    0.0000    0.0000   -0.0043   -3.2579    0.0000
      118 N2     *d2+       0.0000    0.0000   -0.0000   -0.0000    0.0000   -0.0000   -0.0014    0.0000   -0.0000    0.0000
      119 N2     *d2+      -0.0000    0.0000   -0.0000   -0.0000   -0.0000    0.0000    0.0392    0.0000   -0.0000   -0.0000
      120 N2     *d2+      -0.0000    0.0000   -0.0000   -0.0000   -0.0000   -0.0000   -0.1011    0.0000   -0.0000   -0.0000
      121 N2     *d2+      -0.0000    0.0000   -0.0000   -0.0000   -0.0000    0.0000    0.5532   -0.0000    0.0000   -0.0000
      122 N2     *f3-      -0.0000    0.0000   -0.0000   -0.0000    0.0000   -0.0000   -0.0000    0.0000    0.0000    0.0000
      123 N2     *f3-       0.0000   -0.0000    0.0000   -0.0000    0.0000   -0.0000    0.0000    0.0000    0.0000    0.0000
      124 N2     *f3-       0.0000   -0.0000   -0.0000   -0.0000    0.0000   -0.0000   -0.0000    0.0000   -0.0000    0.0000
      125 N2     *f2-      -0.0000    0.0000    0.0000   -0.0000    0.0000    0.0011   -0.0000    0.0000    0.0000   -0.0000
      126 N2     *f2-       0.0000    0.0000    0.0000   -0.0000    0.0000   -0.0068    0.0000    0.0000    0.0000   -0.0000
      127 N2     *f2-      -0.0000    0.0000    0.0000    0.0000    0.0000   -0.0387    0.0000    0.0000    0.0000   -0.0000
      128 N2     *f1-      -0.0000    0.0154    0.0000    0.0000    0.0000   -0.0000    0.0000    0.0332   -0.0000   -0.0000
      129 N2     *f1-      -0.0000    0.0745    0.0000   -0.0000    0.0000   -0.0000    0.0000    0.1585   -0.0002   -0.0000
      130 N2     *f1-      -0.0000    0.1196    0.0000   -0.0000    0.0000   -0.0000    0.0000    0.2861   -0.0004   -0.0000
      131 N2     *f0       -0.0030   -0.0000   -0.0000    0.0070   -0.0023    0.0000    0.0000   -0.0000   -0.0000    0.0076
      132 N2     *f0        0.0011   -0.0000   -0.0000    0.0704    0.1645    0.0000   -0.0000   -0.0000   -0.0000    0.1234
      133 N2     *f0        0.0147   -0.0000   -0.0000    0.1215    0.1109    0.0000    0.0000   -0.0000   -0.0000    0.2646
      134 N2     *f1+       0.0000   -0.0000    0.0154    0.0000    0.0000   -0.0000   -0.0000    0.0000    0.0332   -0.0000
      135 N2     *f1+       0.0000   -0.0000    0.0745    0.0000    0.0000    0.0000   -0.0000    0.0002    0.1585   -0.0000
      136 N2     *f1+      -0.0000   -0.0000    0.1196   -0.0000    0.0000    0.0000   -0.0000    0.0004    0.2861   -0.0000
      137 N2     *f2+       0.0000   -0.0000    0.0000    0.0000    0.0000    0.0000    0.0011   -0.0000    0.0000    0.0000
      138 N2     *f2+       0.0000   -0.0000    0.0000    0.0000    0.0000   -0.0000   -0.0068   -0.0000    0.0000    0.0000
      139 N2     *f2+       0.0000   -0.0000    0.0000    0.0000    0.0000   -0.0000   -0.0387   -0.0000    0.0000    0.0000
      140 N2     *f3+       0.0000    0.0000   -0.0000    0.0000   -0.0000    0.0000    0.0000    0.0000   -0.0000   -0.0000
      141 N2     *f3+      -0.0000    0.0000    0.0000    0.0000   -0.0000   -0.0000   -0.0000   -0.0000    0.0000   -0.0000
      142 N2     *f3+       0.0000    0.0000    0.0000   -0.0000   -0.0000    0.0000   -0.0000   -0.0000    0.0000    0.0000
      143 N2     *g4-       0.0000   -0.0000   -0.0000    0.0000    0.0000   -0.0000    0.0000    0.0000    0.0000   -0.0000
      144 N2     *g4-      -0.0000    0.0000   -0.0000   -0.0000    0.0000    0.0000   -0.0000    0.0000   -0.0000    0.0000
      145 N2     *g3-       0.0000   -0.0000    0.0000    0.0000   -0.0000    0.0000   -0.0000   -0.0000   -0.0000    0.0000
      146 N2     *g3-      -0.0000    0.0000   -0.0000    0.0000   -0.0000    0.0000   -0.0000   -0.0000   -0.0000   -0.0000
      147 N2     *g2-      -0.0000   -0.0000   -0.0000    0.0000   -0.0000   -0.0049    0.0000   -0.0000   -0.0000   -0.0000
      148 N2     *g2-      -0.0000   -0.0000   -0.0000    0.0000   -0.0000    0.0117   -0.0000   -0.0000   -0.0000   -0.0000
      149 N2     *g1-       0.0000   -0.0057   -0.0000    0.0000    0.0000    0.0000    0.0000   -0.0115    0.0000    0.0000
      150 N2     *g1-       0.0000   -0.0120   -0.0000    0.0000   -0.0000   -0.0000    0.0000   -0.0280    0.0000    0.0000
      151 N2     *g0        0.0031    0.0000    0.0000   -0.0035   -0.0124    0.0000    0.0000    0.0000    0.0000   -0.0001
      152 N2     *g0       -0.0019    0.0000    0.0000   -0.0161   -0.0578    0.0000    0.0000    0.0000    0.0000   -0.0333
      153 N2     *g1+       0.0000    0.0000   -0.0057   -0.0000   -0.0000   -0.0000    0.0000   -0.0000   -0.0115    0.0000
      154 N2     *g1+       0.0000    0.0000   -0.0120    0.0000   -0.0000    0.0000    0.0000   -0.0000   -0.0280    0.0000
      155 N2     *g2+      -0.0000    0.0000   -0.0000   -0.0000   -0.0000   -0.0000   -0.0049    0.0000   -0.0000   -0.0000
      156 N2     *g2+      -0.0000    0.0000   -0.0000   -0.0000   -0.0000    0.0000    0.0117    0.0000   -0.0000   -0.0000
      157 N2     *g3+       0.0000    0.0000    0.0000   -0.0000    0.0000    0.0000   -0.0000   -0.0000    0.0000   -0.0000
      158 N2     *g3+       0.0000   -0.0000   -0.0000   -0.0000    0.0000   -0.0000    0.0000    0.0000   -0.0000   -0.0000
      159 N2     *g4+       0.0000   -0.0000   -0.0000   -0.0000    0.0000    0.0000   -0.0000   -0.0000   -0.0000   -0.0000
      160 N2     *g4+      -0.0000   -0.0000   -0.0000   -0.0000   -0.0000   -0.0000    0.0000   -0.0000    0.0000   -0.0000

          Orbital           21        22        23        24        25        26        27    
          Energy            0.4054    0.4054    0.4088    0.4095    0.4095    0.4576    0.4576
          Occ. No.          0.0000    0.0000    0.0000    0.0000    0.0000    0.0000    0.0000

        1 N1     1s        -0.0000    0.0000   -0.0271    0.0000    0.0000    0.0000    0.0000
        2 N1     2s        -0.0000    0.0000   -0.0979    0.0000    0.0000    0.0000    0.0000
        3 N1     *s        -0.0000    0.0000   -1.5683    0.0000    0.0000    0.0000    0.0000
        4 N1     *s        -0.0000    0.0000  -11.5782    0.0000   -0.0000    0.0000    0.0000
        5 N1     *s        -0.0000    0.0000   -6.3970   -0.0000   -0.0000    0.0000    0.0000
        6 N1     *s         0.0000    0.0000    0.3949   -0.0000   -0.0000    0.0000    0.0000
        7 N1     2px        0.0000   -0.0000    0.0000   -0.0004   -0.0835   -0.0013    0.3543
        8 N1     *px        0.0000    0.0000   -0.0000    0.0011    0.2220   -0.0004    0.1240
        9 N1     *px        0.0000    0.0000   -0.0000    0.0036    0.7352   -0.0028    0.7838
       10 N1     *px        0.0000    0.0000   -0.0000    0.0032    0.6483    0.0037   -1.0216
       11 N1     *px       -0.0000    0.0000   -0.0000   -0.0014   -0.2829   -0.0014    0.3799
       12 N1     2py        0.0000    0.0000    0.0000   -0.0835    0.0004    0.3543    0.0013
       13 N1     *py        0.0000   -0.0000   -0.0000    0.2220   -0.0011    0.1240    0.0004
       14 N1     *py        0.0000   -0.0000   -0.0000    0.7352   -0.0036    0.7838    0.0028
       15 N1     *py        0.0000   -0.0000   -0.0000    0.6483   -0.0032   -1.0216   -0.0037
       16 N1     *py       -0.0000   -0.0000   -0.0000   -0.2829    0.0014    0.3799    0.0014
       17 N1     2pz        0.0000    0.0000   -0.0246    0.0000    0.0000   -0.0000    0.0000
       18 N1     *pz       -0.0000    0.0000   -0.6639   -0.0000    0.0000    0.0000   -0.0000
       19 N1     *pz       -0.0000    0.0000   -3.0559   -0.0000   -0.0000    0.0000   -0.0000
       20 N1     *pz       -0.0000    0.0000   -0.7843    0.0000    0.0000   -0.0000   -0.0000
       21 N1     *pz       -0.0000    0.0000   -0.1391    0.0000    0.0000    0.0000    0.0000
       22 N1     *d2-       0.0063   -0.0000   -0.0000    0.0000   -0.0000   -0.0000    0.0000
       23 N1     *d2-      -0.3207    0.0000    0.0000   -0.0000    0.0000    0.0000   -0.0000
       24 N1     *d2-      -2.6648    0.0000    0.0000   -0.0000    0.0000    0.0000   -0.0000
       25 N1     *d2-      -4.6666    0.0000    0.0000   -0.0000    0.0000    0.0000   -0.0000
       26 N1     *d1-       0.0000   -0.0000   -0.0000    0.0096   -0.0000    0.0246    0.0001
       27 N1     *d1-       0.0000   -0.0000   -0.0000   -0.1023    0.0005   -0.0733   -0.0003
       28 N1     *d1-       0.0000   -0.0000   -0.0000   -1.5153    0.0075   -1.3288   -0.0048
       29 N1     *d1-       0.0000   -0.0000   -0.0000   -3.4846    0.0172   -1.1093   -0.0040
       30 N1     *d0       -0.0000    0.0000   -0.0169    0.0000    0.0000   -0.0000    0.0000
       31 N1     *d0       -0.0000    0.0000   -0.4430   -0.0000   -0.0000   -0.0000   -0.0000
       32 N1     *d0       -0.0000    0.0000   -2.4979   -0.0000   -0.0000   -0.0000   -0.0000
       33 N1     *d0       -0.0000    0.0000   -3.6058    0.0000    0.0000   -0.0000   -0.0000
       34 N1     *d1+       0.0000    0.0000   -0.0000    0.0000    0.0096   -0.0001    0.0246
       35 N1     *d1+       0.0000    0.0000   -0.0000   -0.0005   -0.1023    0.0003   -0.0733
       36 N1     *d1+       0.0000    0.0000   -0.0000   -0.0075   -1.5153    0.0048   -1.3288
       37 N1     *d1+       0.0000    0.0000   -0.0000   -0.0172   -3.4846    0.0040   -1.1093
       38 N1     *d2+       0.0000    0.0063    0.0000   -0.0000    0.0000   -0.0000    0.0000
       39 N1     *d2+      -0.0000   -0.3207   -0.0000    0.0000   -0.0000    0.0000   -0.0000
       40 N1     *d2+      -0.0000   -2.6648   -0.0000   -0.0000   -0.0000   -0.0000    0.0000
       41 N1     *d2+      -0.0000   -4.6666   -0.0000    0.0000   -0.0000   -0.0000    0.0000
       42 N1     *f3-       0.0000   -0.0000   -0.0000    0.0000    0.0000   -0.0000   -0.0000
       43 N1     *f3-       0.0000    0.0000   -0.0000   -0.0000   -0.0000   -0.0000    0.0000
       44 N1     *f3-       0.0000   -0.0000   -0.0000   -0.0000    0.0000   -0.0000   -0.0000
       45 N1     *f2-      -0.0231    0.0000    0.0000   -0.0000    0.0000    0.0000   -0.0000
       46 N1     *f2-      -0.3372    0.0000    0.0000   -0.0000    0.0000    0.0000   -0.0000
       47 N1     *f2-      -1.0348    0.0000    0.0000   -0.0000    0.0000    0.0000   -0.0000
       48 N1     *f1-       0.0000   -0.0000   -0.0000   -0.0132    0.0001    0.0063    0.0000
       49 N1     *f1-       0.0000   -0.0000   -0.0000   -0.2340    0.0012   -0.2684   -0.0010
       50 N1     *f1-       0.0000   -0.0000   -0.0000   -0.8716    0.0043   -0.5689   -0.0020
       51 N1     *f0       -0.0000    0.0000   -0.0254   -0.0000    0.0000    0.0000   -0.0000
       52 N1     *f0       -0.0000    0.0000   -0.3604   -0.0000   -0.0000   -0.0000   -0.0000
       53 N1     *f0       -0.0000    0.0000   -1.1347   -0.0000   -0.0000   -0.0000   -0.0000
       54 N1     *f1+       0.0000    0.0000   -0.0000   -0.0001   -0.0132   -0.0000    0.0063
       55 N1     *f1+       0.0000    0.0000   -0.0000   -0.0012   -0.2340    0.0010   -0.2684
       56 N1     *f1+       0.0000    0.0000   -0.0000   -0.0043   -0.8716    0.0020   -0.5689
       57 N1     *f2+      -0.0000   -0.0231   -0.0000    0.0000   -0.0000    0.0000    0.0000
       58 N1     *f2+      -0.0000   -0.3372   -0.0000   -0.0000    0.0000   -0.0000    0.0000
       59 N1     *f2+      -0.0000   -1.0348   -0.0000   -0.0000    0.0000   -0.0000    0.0000
       60 N1     *f3+       0.0000   -0.0000    0.0000    0.0000   -0.0000   -0.0000    0.0000
       61 N1     *f3+      -0.0000    0.0000    0.0000    0.0000    0.0000   -0.0000    0.0000
       62 N1     *f3+      -0.0000    0.0000    0.0000    0.0000    0.0000   -0.0000    0.0000
       63 N1     *g4-       0.0000    0.0000    0.0000   -0.0000   -0.0000   -0.0000   -0.0000
       64 N1     *g4-      -0.0000   -0.0000   -0.0000    0.0000   -0.0000    0.0000   -0.0000
       65 N1     *g3-      -0.0000    0.0000   -0.0000    0.0000    0.0000    0.0000   -0.0000
       66 N1     *g3-       0.0000    0.0000   -0.0000   -0.0000   -0.0000   -0.0000    0.0000
       67 N1     *g2-      -0.0213    0.0000    0.0000    0.0000    0.0000    0.0000   -0.0000
       68 N1     *g2-      -0.0969    0.0000    0.0000    0.0000    0.0000    0.0000    0.0000
       69 N1     *g1-       0.0000   -0.0000   -0.0000   -0.0183    0.0001   -0.0086   -0.0000
       70 N1     *g1-       0.0000   -0.0000   -0.0000   -0.0849    0.0004   -0.0863   -0.0003
       71 N1     *g0       -0.0000    0.0000   -0.0166   -0.0000    0.0000    0.0000    0.0000
       72 N1     *g0       -0.0000    0.0000   -0.1205   -0.0000   -0.0000   -0.0000   -0.0000
       73 N1     *g1+       0.0000    0.0000   -0.0000   -0.0001   -0.0183    0.0000   -0.0086
       74 N1     *g1+       0.0000    0.0000   -0.0000   -0.0004   -0.0849    0.0003   -0.0863
       75 N1     *g2+      -0.0000   -0.0213   -0.0000   -0.0000    0.0000    0.0000    0.0000
       76 N1     *g2+      -0.0000   -0.0969   -0.0000   -0.0000    0.0000   -0.0000    0.0000
       77 N1     *g3+      -0.0000    0.0000    0.0000    0.0000   -0.0000    0.0000   -0.0000
       78 N1     *g3+      -0.0000    0.0000    0.0000   -0.0000    0.0000   -0.0000    0.0000
       79 N1     *g4+       0.0000    0.0000    0.0000    0.0000    0.0000    0.0000    0.0000
       80 N1     *g4+       0.0000   -0.0000    0.0000   -0.0000   -0.0000   -0.0000   -0.0000
       81 N2     1s         0.0000   -0.0000    0.0271    0.0000    0.0000    0.0000    0.0000
       82 N2     2s         0.0000   -0.0000    0.0979    0.0000    0.0000    0.0000    0.0000
       83 N2     *s         0.0000   -0.0000    1.5683    0.0000    0.0000    0.0000    0.0000
       84 N2     *s         0.0000   -0.0000   11.5782   -0.0000    0.0000   -0.0000    0.0000
       85 N2     *s         0.0000   -0.0000    6.3970    0.0000   -0.0000   -0.0000   -0.0000
       86 N2     *s        -0.0000   -0.0000   -0.3949    0.0000    0.0000   -0.0000   -0.0000
       87 N2     2px       -0.0000    0.0000   -0.0000   -0.0004   -0.0835   -0.0013    0.3543
       88 N2     *px       -0.0000   -0.0000    0.0000    0.0011    0.2220   -0.0004    0.1240
       89 N2     *px       -0.0000   -0.0000    0.0000    0.0036    0.7352   -0.0028    0.7838
       90 N2     *px       -0.0000   -0.0000    0.0000    0.0032    0.6483    0.0037   -1.0216
       91 N2     *px        0.0000   -0.0000    0.0000   -0.0014   -0.2829   -0.0014    0.3799
       92 N2     2py        0.0000   -0.0000   -0.0000   -0.0835    0.0004    0.3543    0.0013
       93 N2     *py       -0.0000    0.0000    0.0000    0.2220   -0.0011    0.1240    0.0004
       94 N2     *py       -0.0000    0.0000    0.0000    0.7352   -0.0036    0.7838    0.0028
       95 N2     *py       -0.0000    0.0000    0.0000    0.6483   -0.0032   -1.0216   -0.0037
       96 N2     *py        0.0000    0.0000    0.0000   -0.2829    0.0014    0.3799    0.0014
       97 N2     2pz       -0.0000    0.0000   -0.0246   -0.0000   -0.0000   -0.0000   -0.0000
       98 N2     *pz       -0.0000    0.0000   -0.6639    0.0000    0.0000    0.0000    0.0000
       99 N2     *pz       -0.0000    0.0000   -3.0559    0.0000    0.0000    0.0000    0.0000
      100 N2     *pz        0.0000    0.0000   -0.7843   -0.0000   -0.0000    0.0000    0.0000
      101 N2     *pz        0.0000    0.0000   -0.1391   -0.0000   -0.0000   -0.0000   -0.0000
      102 N2     *d2-      -0.0063    0.0000    0.0000   -0.0000   -0.0000   -0.0000    0.0000
      103 N2     *d2-       0.3207   -0.0000   -0.0000    0.0000   -0.0000   -0.0000    0.0000
      104 N2     *d2-       2.6648   -0.0000   -0.0000    0.0000   -0.0000   -0.0000    0.0000
      105 N2     *d2-       4.6666   -0.0000   -0.0000    0.0000   -0.0000   -0.0000    0.0000
      106 N2     *d1-       0.0000   -0.0000   -0.0000   -0.0096    0.0000   -0.0246   -0.0001
      107 N2     *d1-       0.0000   -0.0000   -0.0000    0.1023   -0.0005    0.0733    0.0003
      108 N2     *d1-       0.0000   -0.0000   -0.0000    1.5153   -0.0075    1.3288    0.0048
      109 N2     *d1-       0.0000   -0.0000   -0.0000    3.4846   -0.0172    1.1093    0.0040
      110 N2     *d0        0.0000   -0.0000    0.0169    0.0000    0.0000    0.0000    0.0000
      111 N2     *d0        0.0000   -0.0000    0.4430   -0.0000   -0.0000   -0.0000   -0.0000
      112 N2     *d0        0.0000   -0.0000    2.4979   -0.0000   -0.0000   -0.0000   -0.0000
      113 N2     *d0        0.0000   -0.0000    3.6058    0.0000    0.0000   -0.0000   -0.0000
      114 N2     *d1+       0.0000    0.0000   -0.0000   -0.0000   -0.0096    0.0001   -0.0246
      115 N2     *d1+       0.0000    0.0000   -0.0000    0.0005    0.1023   -0.0003    0.0733
      116 N2     *d1+       0.0000    0.0000   -0.0000    0.0075    1.5153   -0.0048    1.3288
      117 N2     *d1+       0.0000    0.0000   -0.0000    0.0172    3.4846   -0.0040    1.1093
      118 N2     *d2+      -0.0000   -0.0063   -0.0000   -0.0000    0.0000   -0.0000    0.0000
      119 N2     *d2+       0.0000    0.3207    0.0000    0.0000   -0.0000    0.0000   -0.0000
      120 N2     *d2+       0.0000    2.6648    0.0000    0.0000    0.0000    0.0000   -0.0000
      121 N2     *d2+       0.0000    4.6666    0.0000    0.0000    0.0000    0.0000   -0.0000
      122 N2     *f3-      -0.0000    0.0000    0.0000   -0.0000   -0.0000   -0.0000    0.0000
      123 N2     *f3-      -0.0000   -0.0000    0.0000    0.0000    0.0000    0.0000   -0.0000
      124 N2     *f3-      -0.0000    0.0000    0.0000    0.0000    0.0000    0.0000    0.0000
      125 N2     *f2-      -0.0231    0.0000    0.0000    0.0000    0.0000   -0.0000   -0.0000
      126 N2     *f2-      -0.3372    0.0000    0.0000   -0.0000    0.0000    0.0000   -0.0000
      127 N2     *f2-      -1.0348    0.0000    0.0000   -0.0000    0.0000    0.0000   -0.0000
      128 N2     *f1-      -0.0000    0.0000    0.0000   -0.0132    0.0001    0.0063    0.0000
      129 N2     *f1-      -0.0000    0.0000    0.0000   -0.2340    0.0012   -0.2684   -0.0010
      130 N2     *f1-      -0.0000    0.0000    0.0000   -0.8716    0.0043   -0.5689   -0.0020
      131 N2     *f0       -0.0000    0.0000   -0.0254   -0.0000    0.0000    0.0000   -0.0000
      132 N2     *f0       -0.0000    0.0000   -0.3604    0.0000    0.0000    0.0000    0.0000
      133 N2     *f0       -0.0000    0.0000   -1.1347    0.0000    0.0000    0.0000    0.0000
      134 N2     *f1+      -0.0000   -0.0000    0.0000   -0.0001   -0.0132   -0.0000    0.0063
      135 N2     *f1+      -0.0000   -0.0000    0.0000   -0.0012   -0.2340    0.0010   -0.2684
      136 N2     *f1+      -0.0000   -0.0000    0.0000   -0.0043   -0.8716    0.0020   -0.5689
      137 N2     *f2+      -0.0000   -0.0231   -0.0000   -0.0000    0.0000   -0.0000    0.0000
      138 N2     *f2+      -0.0000   -0.3372   -0.0000    0.0000   -0.0000    0.0000   -0.0000
      139 N2     *f2+      -0.0000   -1.0348   -0.0000    0.0000   -0.0000    0.0000   -0.0000
      140 N2     *f3+       0.0000    0.0000   -0.0000   -0.0000    0.0000   -0.0000    0.0000
      141 N2     *f3+       0.0000   -0.0000   -0.0000   -0.0000   -0.0000    0.0000   -0.0000
      142 N2     *f3+       0.0000   -0.0000   -0.0000   -0.0000   -0.0000    0.0000   -0.0000
      143 N2     *g4-      -0.0000   -0.0000   -0.0000   -0.0000   -0.0000   -0.0000   -0.0000
      144 N2     *g4-      -0.0000    0.0000    0.0000   -0.0000    0.0000   -0.0000    0.0000
      145 N2     *g3-       0.0000    0.0000   -0.0000   -0.0000    0.0000   -0.0000    0.0000
      146 N2     *g3-       0.0000    0.0000   -0.0000   -0.0000   -0.0000   -0.0000   -0.0000
      147 N2     *g2-       0.0213   -0.0000   -0.0000    0.0000    0.0000    0.0000    0.0000
      148 N2     *g2-       0.0969   -0.0000   -0.0000    0.0000    0.0000    0.0000    0.0000
      149 N2     *g1-       0.0000   -0.0000   -0.0000    0.0183   -0.0001    0.0086    0.0000
      150 N2     *g1-       0.0000   -0.0000   -0.0000    0.0849   -0.0004    0.0863    0.0003
      151 N2     *g0        0.0000   -0.0000    0.0166    0.0000   -0.0000   -0.0000    0.0000
      152 N2     *g0        0.0000   -0.0000    0.1205   -0.0000   -0.0000   -0.0000   -0.0000
      153 N2     *g1+       0.0000    0.0000   -0.0000    0.0001    0.0183   -0.0000    0.0086
      154 N2     *g1+       0.0000    0.0000   -0.0000    0.0004    0.0849   -0.0003    0.0863
      155 N2     *g2+       0.0000    0.0213    0.0000   -0.0000    0.0000   -0.0000   -0.0000
      156 N2     *g2+       0.0000    0.0969    0.0000   -0.0000    0.0000   -0.0000    0.0000
      157 N2     *g3+       0.0000    0.0000    0.0000    0.0000    0.0000   -0.0000   -0.0000
      158 N2     *g3+      -0.0000    0.0000    0.0000    0.0000    0.0000   -0.0000    0.0000
      159 N2     *g4+      -0.0000   -0.0000    0.0000    0.0000    0.0000    0.0000    0.0000
      160 N2     *g4+       0.0000    0.0000   -0.0000   -0.0000   -0.0000   -0.0000   -0.0000
--


++    Molecular charges:
      ------------------

      Mulliken charges per centre and basis function type
      ---------------------------------------------------

                N1      N2    
      1s       1.9912  1.9912
      2s       1.9448  1.9448
      2px      1.6253  1.6253
      2pz      1.9753  1.9753
      2py      1.6253  1.6253
      *s      -0.0130 -0.0130
      *px     -0.6702 -0.6702
      *pz     -0.8702 -0.8702
      *py     -0.6702 -0.6702
      *d2+    -0.0000  0.0000
      *d1+     0.0419  0.0419
      *d0     -0.0275 -0.0275
      *d1-     0.0419  0.0419
      *d2-     0.0000  0.0000
      *f3+    -0.0000  0.0000
      *f2+     0.0000  0.0000
      *f1+     0.0027  0.0027
      *f0     -0.0006 -0.0006
      *f1-     0.0027  0.0027
      *f2-    -0.0000 -0.0000
      *f3-    -0.0000  0.0000
      *g4+     0.0000  0.0000
      *g3+    -0.0000 -0.0000
      *g2+     0.0000 -0.0000
      *g1+     0.0003  0.0003
      *g0     -0.0000 -0.0000
      *g1-     0.0003  0.0003
      *g2-     0.0000  0.0000
      *g3-    -0.0000  0.0000
      *g4-     0.0000  0.0000
      Total    7.0000  7.0000

      N-E      0.0000 -0.0000

      Total electronic charge=   14.000000

      Total            charge=   -0.000000
--


++    Molecular properties:
      ---------------------

      Charge (e):
                      =   -0.0000
      Dipole Moment (Debye):
      Origin of the operator (Ang)=    0.0000    0.0000    0.0000
                   X= -7.2748E-18               Y= -1.8749E-17               Z= -8.1271E-14           Total=  8.1271E-14
      Quadrupole Moment (Debye*Ang):
      Origin of the operator (Ang)=    0.0000    0.0000    0.2750
                  XX= -7.7994E+00              XY= -1.0210E-15              XZ= -7.6054E-19              YY= -7.7994E+00
                  YZ=  8.7358E-19              ZZ= -1.1206E+01
      In traceless form (Debye*Ang)
                  XX=  1.7034E+00              XY= -1.5315E-15              XZ= -1.1408E-18              YY=  1.7034E+00
                  YZ=  1.3104E-18              ZZ= -3.4068E+00
--


  Input file to MOLDEN was generated!

 ###############################################################################
 ###############################################################################
 ###                                                                         ###
 ###                                                                         ###
 ###    WARNING: RunFile label nBas                                          ###
 ###    was used       71 times                                              ###
 ###                                                                         ###
 ###                                                                         ###
 ###############################################################################
 ###############################################################################
--- Stop Module: scf at Tue Aug  4 16:12:59 2020 /rc=_RC_ALL_IS_WELL_ ---
*** files: g_test.scf.molden g_test.ScfOrb g_test.scf.h5 xmldump
    saved to directory /home/gayverjr/OpenCAP/molcas_tests/carts
--- Module scf spent 22 seconds ---

*** symbolic link created: INPORB -> g_test.ScfOrb
--- Start Module: rasscf at Tue Aug  4 16:13:00 2020 ---

()()()()()()()()()()()()()()()()()()()()()()()()()()()()()()()()()()()()()()()()()()()()()()()()()()

                                              &RASSCF

                                   only a single process is used
                       available to each process: 20 GB of memory, 16 threads
                                             pid: 28711
()()()()()()()()()()()()()()()()()()()()()()()()()()()()()()()()()()()()()()()()()()()()()()()()()()


      Header of the ONEINT file:
      --------------------------
      
      Integrals generated by seward 4.2.0  , Tue Aug  4 16:12:26 2020


      OrdInt status: non-squared


      Cartesian coordinates in Angstrom:
      -----------------------------------------------------
      No.  Label        X            Y            Z        
      -----------------------------------------------------
       1   N1         0.00000000   0.00000000   0.00000000
       2   N2         0.00000000   0.00000000   0.55000000
      -----------------------------------------------------
      Nuclear repulsion energy =   47.14487879

++    Wave function specifications:
      -----------------------------

      Number of closed shell electrons          10
      Number of electrons in active shells       4
      Max number of holes in RAS1 space          0
      Max nr of electrons in RAS3 space          0
      Number of inactive orbitals                5
      Number of active orbitals                  4
      Number of secondary orbitals             151
      Spin quantum number                      0.0
      State symmetry                             1
--

++    Orbital specifications:
      -----------------------

      Symmetry species                           1
                                                 a
      Frozen orbitals                            0
      Inactive orbitals                          5
      Active orbitals                            4
      RAS1 orbitals                              0
      RAS2 orbitals                              4
      RAS3 orbitals                              0
      Secondary orbitals                       151
      Deleted orbitals                           0
      Number of basis functions                160
--

++    CI expansion specifications:
      ----------------------------

      Number of CSFs                            20
      Number of determinants                    21
      Number of root(s) required                10
      Root chosen for geometry opt.             10
      CI roots used                              1     2     3     4     5     6     7     8     9    10
      weights                                0.100 0.100 0.100 0.100 0.100 0.100 0.100 0.100 0.100 0.100
      highest root included in the CI           10
      max. size of the explicit Hamiltonian     20
--

++    Optimization specifications:
      ----------------------------

      RASSCF algorithm: Conventional
      Maximum number of macro iterations       200
      Maximum number of SX iterations          100
      Threshold for RASSCF energy            0.100E-07
      Threshold for max MO rotation          0.100E+00
      Threshold for max BLB element          0.100E-03
      Level shift parameter                  0.500E+00
      Make Quasi-Newton update
--

      The MO-coefficients are taken from the file:
      INPORB                                                                                                                          
      Title: SCF orbitals                                                                  

      Total molecular charge    0.00

      ************************************************************************************************************************
      *                                                                                                                      *
      *                                            Wave function control section                                             *
      *                                                                                                                      *
      ************************************************************************************************************************


                                         RASSCF iterations: Energy and convergence statistics
                                         ----------------------------------------------------

      Iter CI   SX   CI       RASSCF       Energy    max ROT     max BLB   max BLB  Level Ln srch  Step   QN   Walltime
          iter iter root      energy       change     param      element    value   shift minimum  type update hh:mm:ss
 Nr of preliminary CI iterations:   1
        1   1   49    0  -104.31474913    0.00E+00  -0.92E-01    5  26 1  0.16E+00*  0.25   0.00    SX    NO    0:00:25
        2   1    8    0  -104.40156790   -0.87E-01*  0.70E-01    4 111 1 -0.53E-01*  0.25   0.00    SX    NO    0:00:12
        3   1   12    0  -104.41401425   -0.12E-01*  0.56E-01    9  26 1 -0.32E-01*  0.25   0.00    SX    NO    0:00:11
        4   1    7    0  -104.41963668   -0.56E-02*  0.44E-01    9  26 1 -0.21E-01*  0.25   0.00    SX    NO    0:00:09
        5   1    7    0  -104.42251800   -0.29E-02*  0.56E-01    9  26 1 -0.14E-01*  0.25   2.50    LS   YES    0:00:10
        6   1    7    0  -104.42478782   -0.23E-02*  0.44E-01    8  15 1  0.81E-02*  0.26   1.89    LS   YES    0:00:10
        7   1    6    0  -104.42543781   -0.65E-03*  0.19E-01    5 110 1 -0.10E-01*  0.26   1.14    QN   YES    0:00:10
        8   1    6    0  -104.42565857   -0.22E-03*  0.99E-02    9  26 1  0.29E-02*  0.26   1.10    QN   YES    0:00:09
        9   1    6    0  -104.42571731   -0.59E-04*  0.14E-01    9  26 1  0.21E-02*  0.26   2.50    LS   YES    0:00:10
       10   1    5    0  -104.42575123   -0.34E-04* -0.39E-02    3  77 1  0.18E-02*  0.26   1.06    QN   YES    0:00:10
       11   1    5    0  -104.42576297   -0.12E-04* -0.11E-02    3  77 1  0.57E-03*  0.26   1.38    QN   YES    0:00:10
       12   1    5    0  -104.42576435   -0.14E-05*  0.11E-03    4  27 1 -0.81E-04   0.26   1.07    QN   YES    0:00:10
[...]
  Occupation of active orbitals, and spin coupling
  of open shells. (u,d: Spin up or down).
  SGUGA info is (Midvert:IsyUp:UpperWalk/LowerWalk)
        Conf  SGUGA info        Occupation    Coefficient         Weight
           2  ( 2:1:   1/   1)   2ud0            0.063439       0.004024
           6  ( 3:1:   1/   1)   2020            0.723020       0.522758
           8  ( 3:1:   3/   1)   2002            0.400052       0.160041
          12  ( 3:1:   1/   3)   0220           -0.486593       0.236773
          14  ( 3:1:   3/   3)   0202           -0.276076       0.076218

  The CI coefficients for the MIXED state nr.   7
--------------------------------------------------------------------------------
 CI COEFFICIENTS LARGER THAN  0.50D-01
  Occupation of active orbitals, and spin coupling
  of open shells. (u,d: Spin up or down).
  SGUGA info is (Midvert:IsyUp:UpperWalk/LowerWalk)
        Conf  SGUGA info        Occupation    Coefficient         Weight
           6  ( 3:1:   1/   1)   2020            0.402194       0.161760
           8  ( 3:1:   3/   1)   2002           -0.719298       0.517390
          12  ( 3:1:   1/   3)   0220           -0.271038       0.073462
          14  ( 3:1:   3/   3)   0202            0.496117       0.246132

  The CI coefficients for the MIXED state nr.   8
--------------------------------------------------------------------------------
 CI COEFFICIENTS LARGER THAN  0.50D-01
  Occupation of active orbitals, and spin coupling
  of open shells. (u,d: Spin up or down).
  SGUGA info is (Midvert:IsyUp:UpperWalk/LowerWalk)
        Conf  SGUGA info        Occupation    Coefficient         Weight
           5  ( 2:1:   2/   2)   u20d           -0.071152       0.005063
          15  ( 4:1:   1/   1)   uudd           -0.997325       0.994657

  The CI coefficients for the MIXED state nr.   9
--------------------------------------------------------------------------------
 CI COEFFICIENTS LARGER THAN  0.50D-01
  Occupation of active orbitals, and spin coupling
  of open shells. (u,d: Spin up or down).
  SGUGA info is (Midvert:IsyUp:UpperWalk/LowerWalk)
        Conf  SGUGA info        Occupation    Coefficient         Weight
           7  ( 3:1:   2/   1)   20ud           -0.825445       0.681359
          13  ( 3:1:   2/   3)   02ud            0.562481       0.316385

  The CI coefficients for the MIXED state nr.  10
--------------------------------------------------------------------------------
 CI COEFFICIENTS LARGER THAN  0.50D-01
  Occupation of active orbitals, and spin coupling
  of open shells. (u,d: Spin up or down).
  SGUGA info is (Midvert:IsyUp:UpperWalk/LowerWalk)
        Conf  SGUGA info        Occupation    Coefficient         Weight
           9  ( 3:1:   1/   2)   ud20           -0.107360       0.011526
          11  ( 3:1:   3/   2)   ud02            0.993597       0.987235

--

--- Stop Module: caspt2 at Tue Aug  4 16:18:11 2020 /rc=_RC_ALL_IS_WELL_ ---
*** files: xmldump
    saved to directory /home/gayverjr/OpenCAP/molcas_tests/carts
--- Module caspt2 spent 1 minute 51 seconds ---

*** symbolic link created: INPORB -> g_test.RasOrb
--- Start Module: rassi at Tue Aug  4 16:18:11 2020 ---

()()()()()()()()()()()()()()()()()()()()()()()()()()()()()()()()()()()()()()()()()()()()()()()()()()

                                               &RASSI

                                   only a single process is used
                       available to each process: 20 GB of memory, 16 threads
                                             pid: 34024
()()()()()()()()()()()()()()()()()()()()()()()()()()()()()()()()()()()()()()()()()()()()()()()()()()


      ********************************************************************************
      *                                                                              *
      *                             General data section                             *
      *                                                                              *
      ********************************************************************************

   Specific data for JOBIPH file JOBIPH                                                                                                                          
   -------------------------------------

   Header from SEWARD:
                                                                               
        Integrals generated by seward 4.2.0  , Tue Aug  4 16:12:26 2020        

   CASSCF title (first line only):
       (No title given)                                                        

   STATE IRREP:                            1
   SPIN MULTIPLICITY:                      1
   ACTIVE ELECTRONS:                       4
   MAX RAS1 HOLES:                         0
   MAX RAS3 ELECTRONS:                     0
   NR OF CONFIG:                          20

  Info: creating TDMFILE
        estimated file size                 27000 kB
        TDMs in AO format


   The following data are common to all the states:
   ------------------------------------------------
   (note: frozen counts as inactive, deleted as secondary)

      Nr of irreps: 1

                 Total     No./Irrep 
      Irrep                  1
                             a

      INACTIVE       5       5
      ACTIVE         4       4
      SECONDARY    151     151
      BASIS        160     160

      RAS1           0       0
      RAS2           4       4
      RAS3           0       0

        MATRIX ELEMENTS WILL BE COMPUTED FOR THE FOLLOWING ONE-ELECTRON OPERATORS, UNLESS ZERO BY SYMMETRY.
   (Herm=Hermitian, Anti=Antihermitian, Sing=Singlet operator, Trip=Triplet operator)
     MLTPL  0   1 (HERMSING)     MLTPL  1   1 (HERMSING)     MLTPL  1   2 (HERMSING)
     MLTPL  1   3 (HERMSING)     MLTPL  2   1 (HERMSING)     MLTPL  2   2 (HERMSING)
     MLTPL  2   3 (HERMSING)     MLTPL  2   4 (HERMSING)     MLTPL  2   5 (HERMSING)
     MLTPL  2   6 (HERMSING)     VELOCITY   1 (ANTISING)     VELOCITY   2 (ANTISING)
     VELOCITY   3 (ANTISING)     ANGMOM     1 (ANTISING)     ANGMOM     2 (ANTISING)
     ANGMOM     3 (ANTISING)     MLTPV  2   1 (ANTISING)     MLTPV  2   2 (ANTISING)
     MLTPV  2   3 (ANTISING)     MLTPV  2   4 (ANTISING)     MLTPV  2   5 (ANTISING)
     MLTPV  2   6 (ANTISING)

       EIGENSTATES OF A SPIN-FREE HAMILTONIAN WILL BE COMPUTED BASED ON:

  a (effective) Hamiltonian matrix that was read from the wavefunction file(s).
  SO coupling elements will be added.
       EIGENSTATES OF SPIN-ORBIT HAMILTONIAN WILL BE COMPUTED
        MATRIX ELEMENTS OVER SPIN EIGENSTATES FOR:
     MLTPL  0   1 (HERMSING)     MLTPL  1   1 (HERMSING)     MLTPL  1   2 (HERMSING)
     MLTPL  1   3 (HERMSING)     MLTPL  2   1 (HERMSING)     MLTPL  2   2 (HERMSING)
     MLTPL  2   3 (HERMSING)     MLTPL  2   4 (HERMSING)     MLTPL  2   5 (HERMSING)
     MLTPL  2   6 (HERMSING)     VELOCITY   1 (ANTISING)     VELOCITY   2 (ANTISING)
     VELOCITY   3 (ANTISING)     ANGMOM     1 (ANTISING)     ANGMOM     2 (ANTISING)
     ANGMOM     3 (ANTISING)     MLTPV  2   1 (ANTISING)     MLTPV  2   2 (ANTISING)
     MLTPV  2   3 (ANTISING)     MLTPV  2   4 (ANTISING)     MLTPV  2   5 (ANTISING)
     MLTPV  2   6 (ANTISING)

  Nr of states:                   10

   State:        1   2   3   4   5   6   7   8   9  10
  JobIph:        1   1   1   1   1   1   1   1   1   1
 Root nr:        1   2   3   4   5   6   7   8   9  10

  HAMILTONIAN MATRIX FOR THE ORIGINAL STATES:

  Diagonal, with energies
   -105.50810666   -105.07743345   -105.06053799   -105.05565969   -104.99816268
   -104.50163519   -104.45355588   -104.43701583   -104.68142294   -104.27617597

      OVERLAP MATRIX FOR THE ORIGINAL STATES:

  Diagonal, with elements
      1.00000000      1.00000000      1.00000000      1.00000000      1.00000000
      1.00000000      1.00000000      1.00000000      1.00000000      1.00000000

::    RASSI State    1     Total energy:   -105.50810666
::    RASSI State    2     Total energy:   -105.07743345
::    RASSI State    3     Total energy:   -105.06053799
::    RASSI State    4     Total energy:   -105.05565969
::    RASSI State    5     Total energy:   -104.99816268
::    RASSI State    6     Total energy:   -104.50163519
::    RASSI State    7     Total energy:   -104.45355588
::    RASSI State    8     Total energy:   -104.43701583
::    RASSI State    9     Total energy:   -104.68142294
::    RASSI State   10     Total energy:   -104.27617597



      ****************************************************************************************************
      *                                                                                                  *
      *                                         Spin-free section                                        *
      *                                                                                                  *
      *                 Note: index according to input order, order according to energy.                 *
      *                                                                                                  *
      ****************************************************************************************************



  SPIN-FREE ENERGIES:
  (Shifted by EMIN (a.u.) =       -105.5081066565)

 SF State       Relative EMIN(au)   Rel lowest level(eV)    D:o, cm**(-1)

     1             0.0000000000        0.0000000000              0.0000
     2             0.4306732078       11.7192150028          94521.8435
     3             0.4475686652       12.1789638191          98229.9678
     4             0.4524469645       12.3117091057          99300.6307
     5             0.5099439749       13.8762824652         111919.7659
     9             0.8266837143       22.4952098520         181436.1034
     6             1.0064714644       27.3874837641         220894.9536
     7             1.0545507717       28.6957883653         231447.1419
     8             1.0710908248       29.1458661375         235077.2639
    10             1.2319306914       33.5225418722         270377.5344

++ Dipole transition strengths (spin-free states):
   -----------------------------------------------
     for osc. strength at least  1.00000000E-05

      From   To        Osc. strength     Einstein coefficients Ax, Ay, Az (sec-1)    Total A (sec-1)
     -----------------------------------------------------------------------------------------------
         1    3       5.40134598E-02  9.73932355E+06  3.37902666E+08  2.15773585E-14  3.47641990E+08
         1    7       1.15317137E-03  1.15434676E+06  4.00496859E+07  1.26488116E-15  4.12040327E+07
         2    3       1.53423581E-02  1.56888887E-11  4.52101329E-13  1.40715813E+05  1.40715813E+05
         2    7       5.21850143E-03  1.71039347E-04  4.91916001E-06  6.52612557E+07  6.52612557E+07
         2   10       4.89244338E-02  2.82733622E+07  9.80935115E+08  1.39198836E-12  1.00920848E+09
         3    4       1.04238230E-05  2.23291074E-01  7.74701126E+00  2.26158146E-18  7.97030233E+00
         3    9       1.72685062E-04  2.23410855E+04  7.75116702E+05  3.57027686E-14  7.97457788E+05
         3    6       2.18307424E-02  6.13830585E+06  2.12966527E+08  1.02871635E-13  2.19104833E+08
         3    8       6.41944216E-04  3.49799650E-05  1.01090513E-06  8.01884760E+06  8.01884760E+06
         4    5       5.35453310E-02  7.81697990E-09  2.24981668E-10  5.68752109E+06  5.68752109E+06
         4    7       5.42491626E-02  1.77028519E+07  6.14194695E+08  4.81340353E-14  6.31897547E+08
         4   10       8.58541910E-05  2.38796685E-06  7.03224825E-08  1.67604815E+06  1.67604815E+06
         5    9       8.09745377E-04  9.02743891E-06  2.60244072E-07  2.61014402E+06  2.61014402E+06
         5    8       1.09389524E-02  3.10053217E+06  1.07571956E+08  1.02393776E-13  1.10672489E+08
         9    7       1.08441311E-04  5.06833482E+03  1.75844230E+05  7.01226186E-16  1.80912565E+05
         6    7       3.26093971E-05  6.78526203E+01  2.35412462E+03  4.55043749E-17  2.42197724E+03
         6   10       2.71553376E-02  6.87553809E-09  1.97749843E-10  4.43508674E+07  4.43508674E+07
     -----------------------------------------------------------------------------------------------
--

++ Velocity transition strengths (spin-free states):
   -------------------------------------------------
     for osc. strength at least  1.00000000E-05

      From   To        Osc. strength     Einstein coefficients Ax, Ay, Az (sec-1)    Total A (sec-1)
     -----------------------------------------------------------------------------------------------
         1    3       1.30651963E-01  2.35582342E+07  8.17345285E+08  3.87512060E-14  8.40903519E+08
         1    5       2.46508767E-02  2.17778934E-04  6.26279783E-06  2.05962514E+08  2.05962514E+08
         1    7       4.99794359E-04  5.00303783E+05  1.73578773E+07  2.14249047E-15  1.78581810E+07
         2    3       2.06268013E-01  1.04106066E-08  3.00129232E-10  1.89183246E+06  1.89183246E+06
         2    5       2.44295860E-04  1.38181429E+03  4.79415979E+04  1.23501832E-14  4.93234121E+04
         2    7       1.73215584E-02  2.06495060E-04  5.93820213E-06  2.16619017E+08  2.16619017E+08
         2   10       3.66048772E-02  2.11539075E+07  7.33927951E+08  1.91025878E-12  7.55081858E+08
         3    4       2.26346049E-01  4.84860999E+03  1.68220949E+05  3.49588411E-18  1.73069559E+05
         3    9       5.60711273E-04  7.25418764E+04  2.51681684E+06  4.53859100E-13  2.58935872E+06
         3    6       3.33835817E-02  9.38670022E+06  3.25668515E+08  1.48536209E-12  3.35055216E+08
         3    8       4.44084096E-03  4.37252574E-05  1.26349738E-06  5.54727747E+07  5.54727747E+07
         4    5       9.18165252E-02  6.03126250E-07  1.73493140E-08  9.75264162E+06  9.75264162E+06
         4    7       7.24772812E-02  2.36511406E+07  8.20568641E+08  8.39415408E-14  8.44219782E+08
         4   10       8.80826216E-05  1.97615775E-06  5.81559681E-08  1.71955164E+06  1.71955164E+06
         5    9       1.70028920E-02  4.34871876E-05  1.25354875E-06  5.48073481E+07  5.48073481E+07
         5    6       1.35100056E-04  8.35285130E-07  2.42110684E-08  1.07017058E+06  1.07017058E+06
         5    8       1.67913251E-02  4.75932627E+06  1.65123279E+08  1.60391862E-12  1.69882605E+08
         9    7       1.40191799E-03  6.55229053E+04  2.27329592E+06  1.03525434E-15  2.33881882E+06
         6    7       2.99354918E-03  6.22888410E+03  2.16109111E+05  3.54536820E-18  2.22337995E+05
         6   10       4.91043672E-02  2.78141410E-08  8.03743536E-10  8.01986448E+07  8.01986448E+07
         7    8       1.56631129E-04  5.02681253E-10  1.45324582E-11  1.37677433E+03  1.37677433E+03
         8   10       7.42059916E-05  1.72796058E+03  5.99510311E+04  4.81327808E-17  6.16789917E+04
     -----------------------------------------------------------------------------------------------
--

++ Length and velocity gauge comparison (spin-free states):
   --------------------------------------------------------

 --------------------------------------------------
 A comparison between the dipole oscillator strengths in 
 length and velocity gauge will be performed

 All dipole oscillator differences above the tolerance of   0.10000000000000001       will be printed 

 Due to basis set deficiency these oscillator may be problematic 

 The tolerance is defined as ABS(1-O_l/O_v) 
 O_l : dipole oscillator strength in length gauge
 O_p : dipole oscillator strength in velocity gauge
 --------------------------------------------------

  Problematic transitions have been found

      From   To       Difference (%) Osc. st. (len.) Osc. st. (vel.)
     ---------------------------------------------------------------
         1    3            58.658516  5.40134598E-02  1.30651963E-01
         1    5      --------------- below threshold  2.46508767E-02
         1    7           130.729169  1.15317137E-03  4.99794359E-04
         2    3            92.561931  1.53423581E-02  2.06268013E-01
         2    5      --------------- below threshold  2.44295860E-04
         2    7            69.872795  5.21850143E-03  1.73215584E-02
         2   10            33.655506  4.89244338E-02  3.66048772E-02
         3    4            99.995395  1.04238230E-05  2.26346049E-01
         3    9            69.202499  1.72685062E-04  5.60711273E-04
         3    6            34.606351  2.18307424E-02  3.33835817E-02
         3    8            85.544535  6.41944216E-04  4.44084096E-03
         4    5            41.682251  5.35453310E-02  9.18165252E-02
         4    7            25.150114  5.42491626E-02  7.24772812E-02
         5    9            95.237602  8.09745377E-04  1.70028920E-02
         5    6      --------------- below threshold  1.35100056E-04
         5    8            34.853549  1.09389524E-02  1.67913251E-02
         9    7            92.264789  1.08441311E-04  1.40191799E-03
         6    7            98.910678  3.26093971E-05  2.99354918E-03
         6   10            44.698732  2.71553376E-02  4.91043672E-02
         7    8      --------------- below threshold  1.56631129E-04
         8   10      --------------- below threshold  7.42059916E-05
     ---------------------------------------------------------------

 Number of problematic transitions =                    21

--

 Electric-dipole - electric-octupole not included
 Electric-dipole - magnetic-quadrupole not included


      ****************************************************************************************************
      *                                                                                                  *
      *                                    Special properties section                                    *
      *                                                                                                  *
      ****************************************************************************************************


++ I/O STATISTICS
 
  I. General I/O information
  - - - - - - - - - - - - - - - - - - - - - - - - - - - - - - - - - - - - - - - - - - -
  Unit  Name          Flsize      Write/Read            MBytes           Write/Read
                      (MBytes)       Calls              In/Out           Time, sec.
  - - - - - - - - - - - - - - - - - - - - - - - - - - - - - - - - - - - - - - - - - - -
   1  SCRATCH           0.00 .      10/      55 .      0.0/      0.0 .       0/       0
   2  ANNI              0.00 .       0/       0 .      0.0/      0.0 .       0/       0
   3  RUNFILE          14.25 .     182/    3450 .      1.3/     25.0 .       0/       0
   4  ONEINT            4.31 .       0/   18322 .      0.0/   3447.5 .       0/       0
   5  JOBIPH            5.63 .       0/      98 .      0.0/      1.6 .       0/       0
   6  TDMFILE          21.48 .     110/     110 .     21.5/     21.5 .       0/       0
  - - - - - - - - - - - - - - - - - - - - - - - - - - - - - - - - - - - - - - - - - - -
   *  TOTAL            45.68 .     302/   22035 .     22.8/   3495.5 .       0/       0
  - - - - - - - - - - - - - - - - - - - - - - - - - - - - - - - - - - - - - - - - - - -
 
  II. I/O Access Patterns
  - - - - - - - - - - - - - - - - - - - -
  Unit  Name               % of random
                         Write/Read calls
  - - - - - - - - - - - - - - - - - - - -
   1  SCRATCH             90.0/ 100.0
   2  ANNI                 0.0/   0.0
   3  RUNFILE             28.6/  10.9
   4  ONEINT               0.0/  19.8
   5  JOBIPH               0.0/  75.5
   6  TDMFILE              0.0/  48.2
  - - - - - - - - - - - - - - - - - - - -
--
--- Stop Module: rassi at Tue Aug  4 16:18:12 2020 /rc=_RC_ALL_IS_WELL_ ---
*** files: g_test.rassi.h5 xmldump
    saved to directory /home/gayverjr/OpenCAP/molcas_tests/carts
--- Module rassi spent 1 second ---

.##################.
.# Happy landing! #.
.##################.

    Timing: Wall=347.39 User=4010.30 System=149.79
