******************************************************
*** WorkDir and CurrDir are the same, not cleaned! ***
******************************************************
   This run of MOLCAS is using the pymolcas driver

                             OPE
                             OPE          NMOL  CASOP  ENMOLC A   SO
                 OPE        NMOLC        AS  OP EN  MO LC     AS  OP
                OPENM       OL CA        SO  PE NM  OL CA     SOP EN
                OP EN      MO   LC       AS  OP ENMOL  CASO   PENMOL
                OP  EN     MO   LC       AS  OP EN     MO     LC ASO
               OP   E  NMOL  C  AS       OP  EN MO     LC     AS  OP
               OP  E   NMO   LC AS        OPEN  MO     LCASOP EN   M
               O  PEN   MO  LCA  SO
            OPE   NMO   L   CAS    OP
        OPENMOL  CASOP     ENMOL   CASOPE
     OPENMOLCA   SOPENMOLCASOPEN   MOLCASOPE
    OPENMOLCAS   OP           EN   MOL    CAS
    OPENMOLCAS       OP  ENM        O     LCA
    OPENMOLCAS    OPEN  MOLCASO     P  E  NMO
    OPENMOLCAS     OP               E  N  MOL
    OPENMOLCA   SO           PENM   O  L  CAS    OPEN    MO    LCAS
    OPENMOLCA   SOP           ENM   O  L  CAS   OP  EN  MOLC  AS   O
    OPENMOLCA   SOPE           NM      O  LCA   S      OP  EN MO
    OPENMOLC                AS         O  PEN   M      OL  CA  SOPE
    OPENMO        LCASOPE  NMOL        C  ASO   P      ENMOLC     AS
    OPE     NMO      LCA  SO     P     E   NM   OL  CA SO  PE N   MO
          OPENMOLCA            SOPE   NMO        LCAS  O    P  ENMO
     OPENMOLCASOPENMOLCASOPENMOLCASOPENMOLCA
        OPENMOLCASOPENMOLCASOPENMOLCASOPE
            OPENMOLCASOPENMOLCASOPENM
               OPENMOLCASOPENMOLCA        version: 19.11
                   OPENMOLCASO
                       OPE                tag: 1162-ga18ab34

 OpenMolcas is free software; you can redistribute it and/or modify it
 under the terms of the GNU Lesser General Public License version 2.1.
 OpenMolcas is distributed in the hope that it will be useful, but it
 is provided "as is" and without any express or implied warranties.
 For more details see the full text of the license in the file
 LICENSE or in <http://www.gnu.org/licenses/>.

                 Copyright (C) The OpenMolcas Authors
           For the author list and the recommended citation,
                   consult the file CONTRIBUTORS.md

           *************************************************
           * pymolcas version py2.08                       *
           *   build bed633bbe89b7744c23cdbfc3f64969c      *
           *   (after the EMIL interpreter by V. Veryazov) *
           *************************************************

configuration info
------------------
C Compiler ID: GNU
C flags: -std=gnu99 -fopenmp
Fortran Compiler ID: GNU
Fortran flags: -fno-aggressive-loop-optimizations -cpp -fdefault-integer-8 -fopenmp
Definitions: _MOLCAS_;_I8_;_LINUX_;_MKL_;_DMRG_
Parallel: OFF (GA=OFF)


   ----------------------------------------------------------------------
  |
  |             Project: gorb
  |      Submitted from: /scratch/gayverjr/gorb.3809577802
  |        Scratch area: /scratch/gayverjr/gorb.3809577802
  |     Save outputs to: /home/gayverjr/OpenCAP/molcas_tests/carts
  |              Molcas: /home/qcsoftware/OpenMolcas/qcmaquis_build/build
  |
  | Scratch area is NOT empty
  |
  |      MOLCAS_DRIVER = /home/qcsoftware/bin/pymolcas
  | MOLCAS_NEW_WORKDIR = YES
  |      MOLCAS_NPROCS = 16
  |      MOLCAS_SOURCE = /home/qcsoftware/OpenMolcas/Molcas_src
  |   MOLCAS_STRUCTURE = 0
  |
   ----------------------------------------------------------------------

++ ---------   Input file   ---------

&GATEWAY
Basis set
Ne.aug-cc-pvqz
 Ne1     0.000000000      0.000000000      0.000000000     /Angstrom
End of basis set

&SEWARD

&SCF

&RASSCF
LUMORB
Charge = 0
Ras2=4
TDM
NActEl=4,0,0
CIROOT= 10 10 1

&CASPT2
MAXIter = 50
XMULtistate = all

&RASSI
TRD1
Heff
EJOB

-- ----------------------------------

--- Start Module: gateway at Fri Aug  7 09:59:45 2020 ---

()()()()()()()()()()()()()()()()()()()()()()()()()()()()()()()()()()()()()()()()()()()()()()()()()()

                                              &GATEWAY

                                   only a single process is used
                       available to each process: 20 GB of memory, 16 threads
                                             pid: 40436
()()()()()()()()()()()()()()()()()()()()()()()()()()()()()()()()()()()()()()()()()()()()()()()()()()


++    Symmetry information:
      ---------------------

                    Character Table for C1 

                             E  
                    a        1  x, y, xy, Rz, z, xz, Ry, yz, Rx, I
--


++    Basis set information:
      ----------------------


      Basis set label: NE.AUG-CC-PVQZ.........

      Electronic valence basis set:
      ------------------
      Associated Effective Charge  10.000000 au
      Associated Actual Charge     10.000000 au
      Nuclear Model: Point charge

      Shell  nPrim  nBasis  Cartesian Spherical Contaminant
         s      13       6        X                  
         p       7       5        X                  
         d       4       4                 X         
         f       3       3                 X         
         g       2       2                 X         
--


++    Molecular structure info:
      -------------------------

                    ************************************************ 
                    **** Cartesian Coordinates / Bohr, Angstrom **** 
                    ************************************************ 

     Center  Label                x              y              z                     x              y              z
        1      NE1              0.000000       0.000000       0.000000              0.000000       0.000000       0.000000
--


            Nuclear Potential Energy              0.00000000 au

--- Stop Module: gateway at Fri Aug  7 09:59:47 2020 /rc=_RC_ALL_IS_WELL_ ---
*** files: xmldump
    saved to directory /home/gayverjr/OpenCAP/molcas_tests/carts
--- Module gateway spent 1 second ---

--- Start Module: seward at Fri Aug  7 09:59:47 2020 ---

()()()()()()()()()()()()()()()()()()()()()()()()()()()()()()()()()()()()()()()()()()()()()()()()()()

                                              &SEWARD

                                   only a single process is used
                       available to each process: 20 GB of memory, 16 threads
                                             pid: 40457
()()()()()()()()()()()()()()()()()()()()()()()()()()()()()()()()()()()()()()()()()()()()()()()()()()

               SEWARD will generate:
                  Multipole Moment integrals up to order  2
                  Kinetic Energy integrals
                  Nuclear Attraction integrals (point charge)
                  One-Electron Hamiltonian integrals
                  Velocity integrals
                  Orbital angular momentum around ( 0.0000  0.0000  0.0000 )
                  Velocity quadrupole around ( 0.0000  0.0000  0.0000 )
                  Two-Electron Repulsion integrals

                   Integrals are discarded if absolute value <: 0.10E-13
                   Integral cutoff threshold is set to       <: 0.10E-15

            Nuclear Potential Energy              0.00000000 au


      Basis set specifications :
      Symmetry species         a  
      Basis functions           80


  Input file to MOLDEN was generated!

--- Stop Module: seward at Fri Aug  7 09:59:49 2020 /rc=_RC_ALL_IS_WELL_ ---
*** files: gorb.GssOrb gorb.guessorb.h5 gorb.guessorb.molden xmldump
    saved to directory /home/gayverjr/OpenCAP/molcas_tests/carts
--- Module seward spent 2 seconds ---

*** symbolic link created: INPORB -> gorb.GssOrb
--- Start Module: scf at Fri Aug  7 09:59:49 2020 ---

()()()()()()()()()()()()()()()()()()()()()()()()()()()()()()()()()()()()()()()()()()()()()()()()()()

                                                &SCF

                                   only a single process is used
                       available to each process: 20 GB of memory, 16 threads
                                             pid: 40544
()()()()()()()()()()()()()()()()()()()()()()()()()()()()()()()()()()()()()()()()()()()()()()()()()()

++    Input section:
      --------------

      Header of the integral files:
      
       Integrals generated by seward 4.2.0  , Fri Aug  7 09:59:47 2020


      Cartesian coordinates in Angstrom:
      -----------------------------------------------------
      No.  Label        X            Y            Z        
      -----------------------------------------------------
       1   NE1        0.00000000   0.00000000   0.00000000
      -----------------------------------------------------
      Nuclear repulsion energy =    0.00000000
--

++    Orbital specifications:
      -----------------------

      Symmetry species               1
                                     a
      Frozen orbitals                0
      Occupied orbitals              5
      Secondary orbitals            75
      Deleted orbitals               0
      Total number of orbitals      80
      Number of basis functions     80
--

      Molecular charge                           0.000

++    Optimization specifications:
      ----------------------------

      SCF Algorithm: Conventional
      Minimized density differences are used
      Number of density matrices in core                5
      Maximum number of NDDO SCF iterations           400
      Maximum number of HF SCF iterations             400
      Threshold for SCF energy change            0.10E-08
      Threshold for density matrix               0.10E-03
      Threshold for Fock matrix                  0.15E-03
      Threshold for linear dependence            0.10E-08
      Threshold at which DIIS is turned on       0.15E+00
      Threshold at which QNR/C2DIIS is turned on 0.75E-01
      Threshold for Norm(delta) (QNR/C2DIIS)     0.20E-04
      DIIS extrapolation of the SCF procedure
      All orbitals punched on: SCFORB
--

      Input vectors read from INPORB
      Orbital file label: *Guess orbitals


++ Convergence information
                                   SCF        iterations: Energy and convergence statistics

Iter     Tot. SCF        One-elec.       Two-elec.     Energy      Max Dij or  Max Fij      DNorm      TNorm      AccCon     Time
         Energy          Energy          Energy        Change      Delta Norm                                                in Sec.
   1  -128.528645384  -183.610889189    55.082243805   0.00E+00    0.63E-01*   0.20E+00*    0.47E+01   0.94E+02   None         1.
   2  -128.540121788  -182.058171919    53.518050132  -0.11E-01*   0.28E-01*   0.38E-01*    0.49E+00   0.93E+02   EDIIS        0.
   3  -128.542786165  -182.839536827    54.296750662  -0.27E-02*   0.60E-03*   0.12E-01*    0.15E+00   0.93E+02   c2DIIS       0.
   4  -128.543755413  -182.579058599    54.035303186  -0.97E-03*   0.43E-03*   0.35E-03*    0.30E-02   0.93E+02   QNRc2DIIS    0.
   5  -128.543755803  -182.569653322    54.025897519  -0.39E-06*   0.13E-03*   0.23E-03*    0.17E-03   0.93E+02   QNRc2DIIS    0.
   6  -128.543755937  -182.572754266    54.028998329  -0.13E-06*   0.53E-05    0.66E-05     0.16E-04   0.93E+02   QNRc2DIIS    0.
   7  -128.543755937  -182.572751255    54.028995318  -0.11E-09    0.28E-06    0.36E-06     0.17E-04   0.93E+02   QNRc2DIIS    0.

       Convergence after  7 Macro Iterations
--

 *****************************************************************************************************************************
 *                                                                                                                           *
 *                                             SCF/KS-DFT Program, Final results                                             *
 *                                                                                                                           *
 *                                                                                                                           *
 *                                                                                                                           *
 *                                                       Final Results                                                       *
 *                                                                                                                           *
 *****************************************************************************************************************************

::    Total SCF energy                               -128.5437559373
      One-electron energy                            -182.5727512552
      Two-electron energy                              54.0289953179
      Nuclear repulsion energy                          0.0000000000
      Kinetic energy (interpolated)                   128.5357050636
      Virial theorem                                    1.0000626353
      Total spin, S(S+1)                                0.0000000000
      Total spin, S                                     0.0000000000
      Max non-diagonal density matrix element           0.0000002419
      Max non-diagonal Fock matrix element              0.0000000637


      All orbitals with orbital energies smaller than  E(LUMO)+0.5 are printed

++    Molecular orbitals:
      -------------------

      Title: SCF orbitals

      Molecular orbitals for symmetry species 1: a  

          Orbital            1         2         3         4         5         6         7         8         9    
          Energy          -32.7742   -1.9312   -0.8507   -0.8507   -0.8507    0.2065    0.2065    0.2065    0.2107
          Occ. No.          2.0000    2.0000    2.0000    2.0000    2.0000    0.0000    0.0000    0.0000    0.0000

        1 NE1    1s         1.0001   -0.0002    0.0000   -0.0000   -0.0000    0.0000    0.0000    0.0000   -0.0240
        2 NE1    2s         0.0003    0.9993   -0.0000    0.0000   -0.0000    0.0000    0.0000    0.0000   -0.3110
        3 NE1    *s         0.0001   -0.0005   -0.0000    0.0000    0.0000   -0.0000   -0.0000   -0.0000   -0.0579
        4 NE1    *s        -0.0005    0.0030   -0.0000   -0.0000    0.0000   -0.0000   -0.0000   -0.0000    0.3053
        5 NE1    *s         0.0004   -0.0041    0.0000   -0.0000   -0.0000   -0.0000   -0.0000   -0.0000   -0.9348
        6 NE1    *s        -0.0003    0.0033    0.0000    0.0000   -0.0000   -0.0000   -0.0000    0.0000    1.5824
        7 NE1    2px       -0.0000    0.0000    0.9951    0.0003   -0.1030   -0.0692   -0.1629    0.0000    0.0000
        8 NE1    *px        0.0000   -0.0000   -0.0008   -0.0000    0.0001   -0.0106   -0.0250    0.0000   -0.0000
        9 NE1    *px        0.0000   -0.0000    0.0021    0.0000   -0.0002    0.0284    0.0668   -0.0000    0.0000
       10 NE1    *px        0.0000    0.0000   -0.0070   -0.0000    0.0007   -0.1394   -0.3280    0.0000   -0.0000
       11 NE1    *px       -0.0000    0.0000    0.0098    0.0000   -0.0010    0.4727    1.1124   -0.0000    0.0000
       12 NE1    2py        0.0000    0.0000    0.1030    0.0000    0.9951    0.1629   -0.0692   -0.0000   -0.0000
       13 NE1    *py       -0.0000    0.0000   -0.0001   -0.0000   -0.0008    0.0250   -0.0106   -0.0000    0.0000
       14 NE1    *py       -0.0000    0.0000    0.0002    0.0000    0.0021   -0.0668    0.0284    0.0000   -0.0000
       15 NE1    *py       -0.0000   -0.0000   -0.0007   -0.0000   -0.0070    0.3280   -0.1394   -0.0000    0.0000
       16 NE1    *py        0.0000    0.0000    0.0010    0.0000    0.0098   -1.1124    0.4727    0.0000   -0.0000
       17 NE1    2pz        0.0000   -0.0000   -0.0003    1.0004    0.0000   -0.0000   -0.0000   -0.1770    0.0000
       18 NE1    *pz       -0.0000    0.0000    0.0000   -0.0009   -0.0000   -0.0000   -0.0000   -0.0272   -0.0000
       19 NE1    *pz       -0.0000    0.0000   -0.0000    0.0021    0.0000    0.0000    0.0000    0.0726   -0.0000
       20 NE1    *pz       -0.0000   -0.0000    0.0000   -0.0071   -0.0000   -0.0000   -0.0000   -0.3564   -0.0000
       21 NE1    *pz        0.0000   -0.0000   -0.0000    0.0099    0.0000    0.0000    0.0000    1.2087   -0.0000
       22 NE1    *d2-      -0.0000    0.0000   -0.0000    0.0000   -0.0000    0.0000    0.0000   -0.0000    0.0000
       23 NE1    *d2-       0.0000    0.0000    0.0000   -0.0000   -0.0000   -0.0000   -0.0000    0.0000   -0.0000
       24 NE1    *d2-      -0.0000    0.0000   -0.0000    0.0000   -0.0000    0.0000   -0.0000   -0.0000    0.0000
       25 NE1    *d2-       0.0000    0.0000    0.0000   -0.0000   -0.0000   -0.0000    0.0000    0.0000   -0.0000
       26 NE1    *d1-      -0.0000   -0.0000   -0.0000   -0.0000   -0.0000    0.0000    0.0000   -0.0000    0.0000
       27 NE1    *d1-       0.0000    0.0000   -0.0000    0.0000    0.0000   -0.0000    0.0000    0.0000    0.0000
       28 NE1    *d1-      -0.0000   -0.0000    0.0000   -0.0000   -0.0000    0.0000   -0.0000   -0.0000   -0.0000
       29 NE1    *d1-       0.0000   -0.0000    0.0000   -0.0000   -0.0000    0.0000    0.0000    0.0000    0.0000
       30 NE1    *d0       -0.0000   -0.0000   -0.0000    0.0000   -0.0000    0.0000   -0.0000    0.0000   -0.0000
       31 NE1    *d0       -0.0000    0.0000    0.0000    0.0000   -0.0000   -0.0000   -0.0000    0.0000    0.0000
       32 NE1    *d0        0.0000   -0.0000   -0.0000    0.0000   -0.0000    0.0000    0.0000   -0.0000   -0.0000
       33 NE1    *d0       -0.0000    0.0000    0.0000    0.0000   -0.0000   -0.0000   -0.0000    0.0000    0.0000
       34 NE1    *d1+      -0.0000   -0.0000   -0.0000   -0.0000    0.0000   -0.0000   -0.0000   -0.0000   -0.0000
       35 NE1    *d1+       0.0000    0.0000    0.0000    0.0000   -0.0000    0.0000   -0.0000   -0.0000    0.0000
       36 NE1    *d1+       0.0000   -0.0000   -0.0000   -0.0000    0.0000   -0.0000    0.0000    0.0000    0.0000
       37 NE1    *d1+      -0.0000    0.0000   -0.0000    0.0000   -0.0000   -0.0000   -0.0000   -0.0000   -0.0000
       38 NE1    *d2+      -0.0000   -0.0000   -0.0000   -0.0000   -0.0000    0.0000    0.0000   -0.0000    0.0000
       39 NE1    *d2+       0.0000    0.0000    0.0000    0.0000   -0.0000    0.0000   -0.0000    0.0000   -0.0000
       40 NE1    *d2+      -0.0000   -0.0000    0.0000   -0.0000   -0.0000   -0.0000   -0.0000   -0.0000    0.0000
       41 NE1    *d2+      -0.0000    0.0000    0.0000    0.0000   -0.0000   -0.0000    0.0000    0.0000   -0.0000
       42 NE1    *f3-       0.0000    0.0000   -0.0000    0.0000   -0.0000   -0.0000    0.0000    0.0000   -0.0000
       43 NE1    *f3-       0.0000    0.0000    0.0000   -0.0000    0.0000    0.0000   -0.0000    0.0000    0.0000
       44 NE1    *f3-      -0.0000   -0.0000   -0.0000   -0.0000   -0.0000   -0.0000    0.0000    0.0000   -0.0000
       45 NE1    *f2-      -0.0000    0.0000    0.0000   -0.0000   -0.0000   -0.0000    0.0000    0.0000    0.0000
       46 NE1    *f2-       0.0000    0.0000   -0.0000   -0.0000    0.0000   -0.0000   -0.0000    0.0000    0.0000
       47 NE1    *f2-      -0.0000   -0.0000    0.0000   -0.0000   -0.0000   -0.0000   -0.0000   -0.0000   -0.0000
       48 NE1    *f1-       0.0000    0.0000   -0.0000    0.0000   -0.0000   -0.0000    0.0000   -0.0000    0.0000
       49 NE1    *f1-       0.0000    0.0000    0.0000   -0.0000    0.0000    0.0000   -0.0000    0.0000    0.0000
       50 NE1    *f1-       0.0000   -0.0000   -0.0000   -0.0000   -0.0000   -0.0000    0.0000    0.0000   -0.0000
       51 NE1    *f0       -0.0000   -0.0000   -0.0000    0.0000    0.0000   -0.0000    0.0000   -0.0000    0.0000
       52 NE1    *f0       -0.0000   -0.0000    0.0000   -0.0000   -0.0000    0.0000   -0.0000    0.0000   -0.0000
       53 NE1    *f0        0.0000    0.0000   -0.0000    0.0000    0.0000   -0.0000    0.0000   -0.0000    0.0000
       54 NE1    *f1+       0.0000    0.0000   -0.0000   -0.0000    0.0000    0.0000    0.0000   -0.0000   -0.0000
       55 NE1    *f1+       0.0000    0.0000    0.0000    0.0000   -0.0000   -0.0000   -0.0000   -0.0000   -0.0000
       56 NE1    *f1+      -0.0000   -0.0000   -0.0000   -0.0000    0.0000    0.0000    0.0000    0.0000    0.0000
       57 NE1    *f2+      -0.0000    0.0000    0.0000   -0.0000    0.0000    0.0000   -0.0000   -0.0000   -0.0000
       58 NE1    *f2+       0.0000   -0.0000    0.0000   -0.0000   -0.0000    0.0000   -0.0000    0.0000    0.0000
       59 NE1    *f2+      -0.0000    0.0000    0.0000   -0.0000    0.0000   -0.0000    0.0000   -0.0000   -0.0000
       60 NE1    *f3+      -0.0000   -0.0000    0.0000    0.0000   -0.0000   -0.0000   -0.0000   -0.0000   -0.0000
       61 NE1    *f3+       0.0000   -0.0000   -0.0000   -0.0000    0.0000    0.0000    0.0000    0.0000    0.0000
       62 NE1    *f3+       0.0000    0.0000    0.0000    0.0000   -0.0000   -0.0000   -0.0000    0.0000   -0.0000
       63 NE1    *g4-       0.0000   -0.0000   -0.0000   -0.0000    0.0000    0.0000    0.0000    0.0000    0.0000
       64 NE1    *g4-       0.0000    0.0000    0.0000    0.0000   -0.0000    0.0000   -0.0000   -0.0000    0.0000
       65 NE1    *g3-       0.0000    0.0000    0.0000   -0.0000    0.0000    0.0000   -0.0000   -0.0000   -0.0000
       66 NE1    *g3-      -0.0000    0.0000   -0.0000    0.0000   -0.0000   -0.0000    0.0000    0.0000    0.0000
       67 NE1    *g2-      -0.0000    0.0000   -0.0000   -0.0000   -0.0000    0.0000    0.0000    0.0000   -0.0000
       68 NE1    *g2-       0.0000   -0.0000    0.0000    0.0000    0.0000   -0.0000    0.0000    0.0000    0.0000
       69 NE1    *g1-      -0.0000   -0.0000    0.0000   -0.0000    0.0000    0.0000    0.0000    0.0000    0.0000
       70 NE1    *g1-      -0.0000    0.0000   -0.0000    0.0000   -0.0000    0.0000   -0.0000    0.0000    0.0000
       71 NE1    *g0        0.0000    0.0000   -0.0000   -0.0000   -0.0000    0.0000   -0.0000    0.0000   -0.0000
       72 NE1    *g0       -0.0000   -0.0000    0.0000    0.0000    0.0000   -0.0000    0.0000    0.0000    0.0000
       73 NE1    *g1+       0.0000   -0.0000    0.0000   -0.0000   -0.0000    0.0000   -0.0000    0.0000    0.0000
       74 NE1    *g1+      -0.0000   -0.0000   -0.0000    0.0000    0.0000    0.0000   -0.0000    0.0000   -0.0000
       75 NE1    *g2+       0.0000   -0.0000    0.0000    0.0000   -0.0000    0.0000   -0.0000   -0.0000   -0.0000
       76 NE1    *g2+      -0.0000   -0.0000   -0.0000   -0.0000    0.0000   -0.0000    0.0000    0.0000    0.0000
       77 NE1    *g3+       0.0000    0.0000    0.0000    0.0000    0.0000    0.0000   -0.0000    0.0000    0.0000
       78 NE1    *g3+      -0.0000   -0.0000   -0.0000   -0.0000    0.0000   -0.0000    0.0000   -0.0000   -0.0000
       79 NE1    *g4+       0.0000    0.0000   -0.0000   -0.0000   -0.0000    0.0000   -0.0000    0.0000   -0.0000
       80 NE1    *g4+      -0.0000   -0.0000    0.0000    0.0000    0.0000    0.0000    0.0000   -0.0000    0.0000
--


++    Molecular charges:
      ------------------

      Mulliken charges per centre and basis function type
      ---------------------------------------------------

                NE1   
      1s       2.0002
      2s       1.9985
      2px      2.0008
      2pz      2.0008
      2py      2.0008
      *s       0.0013
      *px     -0.0008
      *pz     -0.0008
      *py     -0.0008
      *d2+     0.0000
      *d1+     0.0000
      *d0      0.0000
      *d1-     0.0000
      *d2-     0.0000
      *f3+     0.0000
      *f2+     0.0000
      *f1+     0.0000
      *f0      0.0000
      *f1-     0.0000
      *f2-     0.0000
      *f3-     0.0000
      *g4+     0.0000
      *g3+     0.0000
      *g2+     0.0000
      *g1+     0.0000
      *g0      0.0000
      *g1-     0.0000
      *g2-     0.0000
      *g3-     0.0000
      *g4-     0.0000
      Total   10.0000

      N-E     -0.0000

      Total electronic charge=   10.000000

      Total            charge=   -0.000000
--


++    Molecular properties:
      ---------------------

      Charge (e):
                      =   -0.0000
      Dipole Moment (Debye):
      Origin of the operator (Ang)=    0.0000    0.0000    0.0000
                   X= -5.3750E-20               Y= -2.6972E-19               Z= -1.1019E-18           Total=  1.1357E-18
      Quadrupole Moment (Debye*Ang):
      Origin of the operator (Ang)=    0.0000    0.0000    0.0000
                  XX= -4.2081E+00              XY= -2.3408E-16              XZ= -4.9137E-19              YY= -4.2081E+00
                  YZ=  2.2365E-20              ZZ= -4.2081E+00
      In traceless form (Debye*Ang)
                  XX= -1.4634E-14              XY= -3.5112E-16              XZ= -7.3705E-19              YY=  1.3141E-14
                  YZ=  3.3547E-20              ZZ=  1.7919E-15
--


  Input file to MOLDEN was generated!

 ###############################################################################
 ###############################################################################
 ###                                                                         ###
 ###                                                                         ###
 ###    WARNING: RunFile label nBas                                          ###
 ###    was used       71 times                                              ###
 ###                                                                         ###
 ###                                                                         ###
 ###############################################################################
 ###############################################################################
--- Stop Module: scf at Fri Aug  7 09:59:51 2020 /rc=_RC_ALL_IS_WELL_ ---
*** files: gorb.scf.molden gorb.ScfOrb gorb.scf.h5 xmldump
    saved to directory /home/gayverjr/OpenCAP/molcas_tests/carts
--- Module scf spent 2 seconds ---

*** symbolic link created: INPORB -> gorb.ScfOrb
--- Start Module: rasscf at Fri Aug  7 09:59:51 2020 ---

()()()()()()()()()()()()()()()()()()()()()()()()()()()()()()()()()()()()()()()()()()()()()()()()()()

                                              &RASSCF

                                   only a single process is used
                       available to each process: 20 GB of memory, 16 threads
                                             pid: 37515
()()()()()()()()()()()()()()()()()()()()()()()()()()()()()()()()()()()()()()()()()()()()()()()()()()


      Header of the ONEINT file:
      --------------------------
      
      Integrals generated by seward 4.2.0  , Fri Aug  7 09:59:47 2020


      OrdInt status: non-squared


      Cartesian coordinates in Angstrom:
      -----------------------------------------------------
      No.  Label        X            Y            Z        
      -----------------------------------------------------
       1   NE1        0.00000000   0.00000000   0.00000000
      -----------------------------------------------------
      Nuclear repulsion energy =    0.00000000

++    Wave function specifications:
      -----------------------------

      Number of closed shell electrons           6
      Number of electrons in active shells       4
      Max number of holes in RAS1 space          0
      Max nr of electrons in RAS3 space          0
      Number of inactive orbitals                3
      Number of active orbitals                  4
      Number of secondary orbitals              73
      Spin quantum number                      0.0
      State symmetry                             1
--

++    Orbital specifications:
      -----------------------

      Symmetry species                           1
                                                 a
      Frozen orbitals                            0
      Inactive orbitals                          3
      Active orbitals                            4
      RAS1 orbitals                              0
      RAS2 orbitals                              4
      RAS3 orbitals                              0
      Secondary orbitals                        73
      Deleted orbitals                           0
      Number of basis functions                 80
--

++    CI expansion specifications:
      ----------------------------

      Number of CSFs                            20
      Number of determinants                    21
      Number of root(s) required                10
      Root chosen for geometry opt.             10
      CI roots used                              1     2     3     4     5     6     7     8     9    10
      weights                                0.100 0.100 0.100 0.100 0.100 0.100 0.100 0.100 0.100 0.100
      highest root included in the CI           10
      max. size of the explicit Hamiltonian     20
--

++    Optimization specifications:
      ----------------------------

      RASSCF algorithm: Conventional
      Maximum number of macro iterations       200
      Maximum number of SX iterations          100
      Threshold for RASSCF energy            0.100E-07
      Threshold for max MO rotation          0.100E+00
      Threshold for max BLB element          0.100E-03
      Level shift parameter                  0.500E+00
      Make Quasi-Newton update
--

      The MO-coefficients are taken from the file:
      INPORB                                                                                                                          
      Title: SCF orbitals                                                                  

      Total molecular charge    0.00

      ************************************************************************************************************************
      *                                                                                                                      *
      *                                            Wave function control section                                             *
      *                                                                                                                      *
      ************************************************************************************************************************


                                         RASSCF iterations: Energy and convergence statistics
                                         ----------------------------------------------------

      Iter CI   SX   CI       RASSCF       Energy    max ROT     max BLB   max BLB  Level Ln srch  Step   QN   Walltime
          iter iter root      energy       change     param      element    value   shift minimum  type update hh:mm:ss
 Nr of preliminary CI iterations:   1
        1   1   83    0  -127.11593385    0.00E+00  -0.11E+00*   3  17 1 -0.49E+00*  0.09   0.00    SX    NO    0:00:02
        2   1   28    0  -127.29667392   -0.18E+00*  0.46E-01    2  43 1 -0.17E+00*  0.11   0.00    SX    NO    0:00:01
        3   1    8    0  -127.31505004   -0.18E-01*  0.28E-01    3  32 1 -0.44E-01*  0.09   0.00    SX    NO    0:00:01
        4   1    7    0  -127.31787381   -0.28E-02*  0.13E-01    2  43 1 -0.16E-01*  0.10   0.00    SX    NO    0:00:01
        5   1    6    0  -127.31844149   -0.57E-03* -0.12E-01    7  17 1  0.65E-02*  0.10   1.24    QN   YES    0:00:01
        6   1    6    0  -127.31860459   -0.16E-03* -0.28E-02    3  32 1 -0.19E-02*  0.10   1.22    QN   YES    0:00:01
        7   1    5    0  -127.31861179   -0.72E-05*  0.29E-03    6  16 1  0.25E-03*  0.10   1.05    QN   YES    0:00:01
        8   1    5    0  -127.31861203   -0.24E-06*  0.28E-03    6  16 1  0.16E-03*  0.10   1.96    LS   YES    0:00:01
        9   1    4    0  -127.31861210   -0.75E-07*  0.15E-03    5  33 1 -0.15E-03*  0.10   1.00    QN   YES    0:00:01
       10   1    4    0  -127.31861213   -0.31E-07*  0.44E-04    3  17 1 -0.43E-04   0.10   1.29    QN   YES    0:00:01
       11   1    3    0  -127.31861214   -0.26E-08   0.31E-05    3  32 1 -0.83E-05   0.10   1.04    QN   YES    0:00:01
      Convergence after 11 iterations
       12   1    3    0  -127.31861214   -0.40E-10   0.31E-05    3  32 1 -0.25E-05   0.10   1.04    QN   YES    0:00:01

      ************************************************************************************************************************
                                                      Wave function printout:
                       occupation of active orbitals, and spin coupling of open shells (u,d: Spin up or down)
      ************************************************************************************************************************

      Note: transformation to natural orbitals
      has been made, which may change the order of the CSFs.

      printout of CI-coefficients larger than  0.05 for root  1
      energy=    -128.372927
      conf/sym  1111     Coeff  Weight
             1  2200   0.95270 0.90763
             2  2ud0  -0.30391 0.09236

      printout of CI-coefficients larger than  0.05 for root  2
      energy=    -127.858896
      conf/sym  1111     Coeff  Weight
             4  u2d0  -0.99953 0.99905

      printout of CI-coefficients larger than  0.05 for root  3
      energy=    -127.857119
      conf/sym  1111     Coeff  Weight
             5  u20d  -0.99784 0.99568
            15  uudd   0.06136 0.00377

      printout of CI-coefficients larger than  0.05 for root  4
      energy=    -127.856093
      conf/sym  1111     Coeff  Weight
             3  2u0d   0.99963 0.99926

      printout of CI-coefficients larger than  0.05 for root  5
      energy=    -127.794844
      conf/sym  1111     Coeff  Weight
             1  2200   0.30373 0.09225
             2  2ud0   0.95198 0.90626

      printout of CI-coefficients larger than  0.05 for root  6
      energy=    -126.793352
      conf/sym  1111     Coeff  Weight
             5  u20d  -0.05936 0.00352
            10  udud   0.08357 0.00698
            15  uudd  -0.99441 0.98886

      printout of CI-coefficients larger than  0.05 for root  7
      energy=    -126.663532
      conf/sym  1111     Coeff  Weight
             9  ud20  -0.64531 0.41642
            11  ud02   0.76343 0.58283

      printout of CI-coefficients larger than  0.05 for root  8
      energy=    -126.663508
      conf/sym  1111     Coeff  Weight
             6  2020  -0.46284 0.21422
             8  2002   0.52989 0.28078
            12  0220   0.44891 0.20152
            14  0202  -0.55033 0.30286

      printout of CI-coefficients larger than  0.05 for root  9
      energy=    -126.663360
      conf/sym  1111     Coeff  Weight
             7  20ud  -0.70608 0.49856
            13  02ud   0.70755 0.50062

      printout of CI-coefficients larger than  0.05 for root 10
      energy=    -126.662491
      conf/sym  1111     Coeff  Weight
            10  udud   0.99617 0.99236
            15  uudd   0.08171 0.00668

      Natural orbitals and occupation numbers for root  1
      sym 1:   1.999989   1.995858   0.004148   0.000005

      Natural orbitals and occupation numbers for root  2
      sym 1:   1.000000   1.999997   0.999998   0.000004

      Natural orbitals and occupation numbers for root  3
      sym 1:   1.000007   1.999773   0.000227   0.999993

      Natural orbitals and occupation numbers for root  4
      sym 1:   1.999931   1.000034   0.000035   1.000000

      Natural orbitals and occupation numbers for root  5
      sym 1:   1.999873   1.369501   0.630621   0.000005

      Natural orbitals and occupation numbers for root  6
      sym 1:   1.000020   1.098010   0.901990   0.999980

      Natural orbitals and occupation numbers for root  7
      sym 1:   0.999997   1.003202   0.830691   1.166109

      Natural orbitals and occupation numbers for root  8
      sym 1:   0.990982   1.012274   0.829212   1.167531

      Natural orbitals and occupation numbers for root  9
      sym 1:   0.998124   1.024556   0.977071   1.000249

      Natural orbitals and occupation numbers for root 10
      sym 1:   0.999838   1.033132   0.966867   1.000164

      ************************************************************************************************************************
      *                                                                                                                      *
      *                                                    Final results                                                     *
      *                                                                                                                      *
      ************************************************************************************************************************


++    Wave function specifications:
      -----------------------------

      Number of closed shell electrons           6
      Number of electrons in active shells       4
      Max number of holes in RAS1 space          0
      Max nr of electrons in RAS3 space          0
      Number of inactive orbitals                3
      Number of active orbitals                  4
      Number of secondary orbitals              73
      Spin quantum number                      0.0
      State symmetry                             1
--

++    Orbital specifications:
      -----------------------

      Symmetry species                           1
                                                 a
      Frozen orbitals                            0
      Inactive orbitals                          3
      Active orbitals                            4
      RAS1 orbitals                              0
      RAS2 orbitals                              4
      RAS3 orbitals                              0
      Secondary orbitals                        73
      Deleted orbitals                           0
      Number of basis functions                 80
--

++    CI expansion specifications:
      ----------------------------

      Number of CSFs                            20
      Number of determinants                    21
      Number of root(s) required                10
      CI roots used                              1     2     3     4     5     6     7     8     9    10
      weights                                0.100 0.100 0.100 0.100 0.100 0.100 0.100 0.100 0.100 0.100
      highest root included in the CI           10
      Root passed to geometry opt.              10
--

++    Final optimization conditions:
      ------------------------------

      Average CI energy                            -127.31861214
      RASSCF energy for state 10                   -126.66249065
      Super-CI energy                                -0.00000000
      RASSCF energy change                           -0.00000000
      Max change in MO coefficients               0.576E-05
      Max non-diagonal density matrix element     0.306E-05
      Maximum BLB matrix element                 -0.246E-05
      (orbital pair   3,  32 in symmetry   1)
      Norm of electronic gradient            0.514E+00
--


      Final state energy(ies):
      ------------------------

::    RASSCF root number  1 Total energy:   -128.37292695
::    RASSCF root number  2 Total energy:   -127.85889557
::    RASSCF root number  3 Total energy:   -127.85711876
::    RASSCF root number  4 Total energy:   -127.85609257
::    RASSCF root number  5 Total energy:   -127.79484412
::    RASSCF root number  6 Total energy:   -126.79335224
::    RASSCF root number  7 Total energy:   -126.66353243
::    RASSCF root number  8 Total energy:   -126.66350781
::    RASSCF root number  9 Total energy:   -126.66336028
::    RASSCF root number 10 Total energy:   -126.66249065

++    Molecular orbitals:
      -------------------

      Pseudonatural active orbitals and approximate occupation numbers




      Molecular orbitals for symmetry species 1: a  


      Orbital                 1         2         3         4         5         6         7         8         9
      Energy           -33.6203   -2.5301   -1.5090    0.0000    0.0000    0.0000    0.0000    0.0599    0.1252
      Occ. No.           2.0000    2.0000    2.0000    1.2989    1.3008    0.6669    0.7334    0.0000    0.0000

     1 NE1    1s         1.0004    0.0041   -0.0000   -0.0000    0.0000    0.0000    0.0000   -0.0186   -0.0000
     2 NE1    2s        -0.0001    1.0634   -0.0000    0.0000    0.0000    0.0000    0.0000   -0.3115   -0.0000
     3 NE1    *s        -0.0007    0.0149   -0.0000    0.0000    0.0000    0.0000    0.0000   -0.0418   -0.0000
     4 NE1    *s        -0.0001    0.0159   -0.0000    0.0000    0.0000   -0.0000   -0.0000    0.1319    0.0000
     5 NE1    *s         0.0002   -0.1030    0.0000   -0.0000   -0.0000    0.0000    0.0000   -0.6327   -0.0000
     6 NE1    *s        -0.0003   -0.0048   -0.0000    0.0000   -0.0000   -0.0000   -0.0000    1.4613    0.0000
     7 NE1    2px        0.0000    0.0000    1.1094    0.0003   -0.1133   -0.0214   -0.2619   -0.0000   -0.0000
     8 NE1    *px       -0.0000    0.0000    0.0046    0.0000   -0.0007   -0.0011   -0.0100   -0.0000   -0.0000
     9 NE1    *px       -0.0000    0.0000   -0.0358   -0.0000    0.0024    0.0011    0.0210    0.0000   -0.0000
    10 NE1    *px       -0.0000    0.0000   -0.1436   -0.0000    0.0133   -0.0030    0.0154   -0.0000   -0.0000
    11 NE1    *px        0.0000   -0.0000    0.0056   -0.0000    0.0028    0.1088    1.0304    0.0000    0.0000
    12 NE1    2py        0.0000    0.0000    0.1149    0.0000    1.0942    0.2070   -0.0271   -0.0000   -0.0000
    13 NE1    *py       -0.0000    0.0000    0.0005    0.0000    0.0069    0.0103   -0.0010   -0.0000   -0.0000
    14 NE1    *py       -0.0000    0.0000   -0.0037   -0.0000   -0.0228   -0.0102    0.0022    0.0000    0.0000
    15 NE1    *py       -0.0000   -0.0000   -0.0149   -0.0000   -0.1282    0.0288    0.0016   -0.0000   -0.0000
    16 NE1    *py        0.0000   -0.0000    0.0006   -0.0000   -0.0268   -1.0510    0.1067    0.0000    0.0000
    17 NE1    2pz        0.0000   -0.0000   -0.0003    1.0925   -0.0000   -0.0000    0.0000    0.0000   -0.1873
    18 NE1    *pz       -0.0000    0.0000   -0.0000    0.0066   -0.0000   -0.0000    0.0000    0.0000   -0.0181
    19 NE1    *pz       -0.0000   -0.0000    0.0000   -0.0218    0.0000    0.0000   -0.0000   -0.0000    0.0376
    20 NE1    *pz       -0.0000    0.0000    0.0000   -0.1248    0.0000   -0.0000   -0.0000    0.0000   -0.1592
    21 NE1    *pz        0.0000    0.0000    0.0000   -0.0067    0.0000    0.0000   -0.0000   -0.0000    1.1214
    22 NE1    *d2-      -0.0000    0.0001    0.0000   -0.0000    0.0000    0.0000   -0.0000    0.0000   -0.0000
    23 NE1    *d2-       0.0001   -0.0000    0.0000    0.0000    0.0000   -0.0000    0.0000    0.0000    0.0000
    24 NE1    *d2-      -0.0000    0.0002    0.0000   -0.0000    0.0000    0.0000   -0.0000    0.0001   -0.0000
    25 NE1    *d2-       0.0000    0.0001    0.0000   -0.0000    0.0000   -0.0000    0.0000   -0.0015    0.0000
    26 NE1    *d1-       0.0000   -0.0000   -0.0000    0.0000    0.0000    0.0000   -0.0000   -0.0000   -0.0000
    27 NE1    *d1-      -0.0000    0.0000    0.0000    0.0000    0.0000   -0.0000    0.0000   -0.0000    0.0000
    28 NE1    *d1-       0.0000   -0.0000   -0.0000    0.0000   -0.0000    0.0000   -0.0000   -0.0000   -0.0000
    29 NE1    *d1-      -0.0000   -0.0000   -0.0000    0.0000   -0.0000   -0.0000    0.0000    0.0000    0.0000
    30 NE1    *d0        0.0000   -0.0003   -0.0000    0.0000    0.0000    0.0000    0.0000   -0.0000    0.0000
    31 NE1    *d0       -0.0002    0.0001   -0.0000    0.0000    0.0000   -0.0000   -0.0000    0.0001   -0.0000
    32 NE1    *d0        0.0000    0.0004   -0.0000   -0.0000    0.0000    0.0000    0.0000   -0.0005    0.0000
    33 NE1    *d0       -0.0000    0.0000   -0.0000   -0.0000    0.0000   -0.0000   -0.0000    0.0063   -0.0000
    34 NE1    *d1+       0.0000   -0.0000   -0.0000    0.0000    0.0000    0.0000   -0.0000   -0.0000   -0.0000
    35 NE1    *d1+      -0.0000    0.0000   -0.0000    0.0000   -0.0000   -0.0000    0.0000   -0.0000    0.0000
    36 NE1    *d1+       0.0000   -0.0000   -0.0000    0.0000    0.0000    0.0000   -0.0000   -0.0000   -0.0000
    37 NE1    *d1+      -0.0000   -0.0000   -0.0000    0.0000   -0.0000   -0.0000    0.0000    0.0000    0.0000
    38 NE1    *d2+      -0.0000    0.0005    0.0000    0.0000   -0.0000   -0.0000   -0.0000    0.0000    0.0000
    39 NE1    *d2+       0.0002   -0.0000    0.0000    0.0000   -0.0000    0.0000    0.0000    0.0002   -0.0000
    40 NE1    *d2+      -0.0000    0.0010    0.0000    0.0000   -0.0000   -0.0000   -0.0000    0.0004    0.0000
    41 NE1    *d2+       0.0000    0.0004    0.0000    0.0000   -0.0000    0.0000    0.0000   -0.0073   -0.0000
    42 NE1    *f3-       0.0000   -0.0000   -0.0003   -0.0000   -0.0009   -0.0000    0.0000    0.0000    0.0000
    43 NE1    *f3-       0.0000   -0.0000   -0.0004   -0.0000   -0.0015   -0.0006    0.0002    0.0000    0.0000
    44 NE1    *f3-      -0.0000    0.0000   -0.0002   -0.0000   -0.0007    0.0017   -0.0006   -0.0000   -0.0000
    45 NE1    *f2-       0.0000    0.0000    0.0000   -0.0002    0.0000    0.0000   -0.0000    0.0000    0.0000
    46 NE1    *f2-       0.0000    0.0000    0.0000   -0.0003    0.0000    0.0000   -0.0000   -0.0000    0.0001
    47 NE1    *f2-      -0.0000   -0.0000    0.0000   -0.0001    0.0000   -0.0000    0.0000    0.0000   -0.0002
    48 NE1    *f1-       0.0000    0.0000    0.0001    0.0000    0.0003   -0.0001    0.0000   -0.0000   -0.0000
    49 NE1    *f1-      -0.0000    0.0000    0.0001    0.0000    0.0004    0.0005   -0.0001   -0.0000   -0.0000
    50 NE1    *f1-       0.0000    0.0000    0.0001    0.0000    0.0009   -0.0012    0.0003    0.0000    0.0000
    51 NE1    *f0        0.0000   -0.0000   -0.0000    0.0007   -0.0000    0.0000    0.0000   -0.0000   -0.0000
    52 NE1    *f0        0.0000    0.0000   -0.0000    0.0009   -0.0000   -0.0000    0.0000    0.0000   -0.0008
    53 NE1    *f0       -0.0000    0.0000   -0.0000    0.0015   -0.0000    0.0000   -0.0000   -0.0000    0.0018
    54 NE1    *f1+      -0.0000    0.0000    0.0008    0.0000   -0.0000    0.0000    0.0000   -0.0000   -0.0000
    55 NE1    *f1+      -0.0000    0.0000    0.0011    0.0000   -0.0000   -0.0001   -0.0009   -0.0000   -0.0000
    56 NE1    *f1+       0.0000    0.0000    0.0013    0.0000   -0.0001    0.0001    0.0025    0.0000    0.0000
    57 NE1    *f2+       0.0000    0.0000    0.0000   -0.0008   -0.0000   -0.0000   -0.0000   -0.0000    0.0001
    58 NE1    *f2+      -0.0000    0.0000    0.0000   -0.0012   -0.0000   -0.0000   -0.0000   -0.0000    0.0004
    59 NE1    *f2+      -0.0000   -0.0000    0.0000   -0.0006   -0.0000    0.0000    0.0000    0.0000   -0.0009
    60 NE1    *f3+       0.0000   -0.0000   -0.0009   -0.0000    0.0003    0.0000    0.0000    0.0000    0.0000
    61 NE1    *f3+       0.0000   -0.0000   -0.0013   -0.0000    0.0005    0.0002    0.0007    0.0000    0.0000
    62 NE1    *f3+      -0.0000    0.0000   -0.0006   -0.0000    0.0002   -0.0005   -0.0018   -0.0000   -0.0000
    63 NE1    *g4-      -0.0000   -0.0000   -0.0000    0.0000   -0.0000   -0.0000    0.0000   -0.0000    0.0000
    64 NE1    *g4-       0.0000   -0.0000   -0.0000   -0.0000   -0.0000    0.0000   -0.0000    0.0000   -0.0000
    65 NE1    *g3-       0.0000    0.0000    0.0000   -0.0000    0.0000   -0.0000    0.0000    0.0000    0.0000
    66 NE1    *g3-      -0.0000    0.0000   -0.0000   -0.0000    0.0000    0.0000   -0.0000   -0.0000   -0.0000
    67 NE1    *g2-       0.0000    0.0000    0.0000    0.0000   -0.0000    0.0000   -0.0000    0.0000   -0.0000
    68 NE1    *g2-       0.0000    0.0000    0.0000   -0.0000    0.0000   -0.0000    0.0000   -0.0000    0.0000
    69 NE1    *g1-      -0.0000   -0.0000   -0.0000    0.0000   -0.0000    0.0000   -0.0000   -0.0000   -0.0000
    70 NE1    *g1-      -0.0000   -0.0000    0.0000    0.0000    0.0000   -0.0000    0.0000    0.0000    0.0000
    71 NE1    *g0       -0.0000   -0.0000   -0.0000   -0.0000   -0.0000    0.0000    0.0000   -0.0000    0.0000
    72 NE1    *g0       -0.0000   -0.0000   -0.0000    0.0000    0.0000   -0.0000   -0.0000    0.0000   -0.0000
    73 NE1    *g1+      -0.0000   -0.0000   -0.0000    0.0000    0.0000    0.0000   -0.0000   -0.0000   -0.0000
    74 NE1    *g1+      -0.0000   -0.0000    0.0000    0.0000   -0.0000   -0.0000    0.0000    0.0000    0.0000
    75 NE1    *g2+       0.0000    0.0000    0.0000    0.0000   -0.0000   -0.0000   -0.0000    0.0000   -0.0000
    76 NE1    *g2+       0.0000    0.0000    0.0000    0.0000   -0.0000    0.0000    0.0000   -0.0000    0.0000
    77 NE1    *g3+       0.0000    0.0000    0.0000   -0.0000   -0.0000   -0.0000    0.0000    0.0000    0.0000
    78 NE1    *g3+      -0.0000    0.0000    0.0000   -0.0000    0.0000    0.0000   -0.0000   -0.0000   -0.0000
    79 NE1    *g4+      -0.0000   -0.0000   -0.0000   -0.0000    0.0000    0.0000    0.0000   -0.0000    0.0000
    80 NE1    *g4+       0.0000   -0.0000   -0.0000    0.0000    0.0000   -0.0000   -0.0000    0.0000    0.0000
--

      Von Neumann Entropy (Root  1) =  0.02152


      Mulliken population analysis for root number:  1
      -----------------------------------------------


++    Molecular charges:
      ------------------

      Mulliken charges per centre and basis function type
      ---------------------------------------------------

                NE1   
      1s       2.0008
      2s       2.1231
      2px      2.2147
      2pz      2.1731
      2py      2.0388
      *s      -0.1239
      *px     -0.2147
      *pz     -0.1732
      *py     -0.0388
      *d2+     0.0000
      *d1+     0.0000
      *d0      0.0000
      *d1-     0.0000
      *d2-     0.0000
      *f3+     0.0000
      *f2+     0.0000
      *f1+     0.0000
      *f0      0.0000
      *f1-     0.0000
      *f2-     0.0000
      *f3-     0.0000
      *g4+     0.0000
      *g3+     0.0000
      *g2+     0.0000
      *g1+     0.0000
      *g0      0.0000
      *g1-     0.0000
      *g2-     0.0000
      *g3-     0.0000
      *g4-     0.0000
      Total   10.0000

      N-E     -0.0000

      Total electronic charge=   10.000000

      Total            charge=   -0.000000
--



      Expectation values of various properties for root number:  1
      -----------------------------------------------------------


++    Molecular properties:
      ---------------------

      Charge (e):
                      =   -0.0000
      Dipole Moment (Debye):
      Origin of the operator (Ang)=    0.0000    0.0000    0.0000
                   X= -1.5019E-07               Y= -6.2910E-08               Z= -9.8890E-11           Total=  1.6284E-07
      Quadrupole Moment (Debye*Ang):
      Origin of the operator (Ang)=    0.0000    0.0000    0.0000
                  XX= -3.7862E+00              XY=  9.4772E-02              XZ= -4.3072E-05              YY= -4.6915E+00
                  YZ=  1.4325E-06              ZZ= -3.8206E+00
      In traceless form (Debye*Ang)
                  XX=  4.6987E-01              XY=  1.4216E-01              XZ= -6.4608E-05              YY= -8.8816E-01
                  YZ=  2.1487E-06              ZZ=  4.1829E-01
--

      Von Neumann Entropy (Root  2) =  1.00004


      Mulliken population analysis for root number:  2
      -----------------------------------------------


++    Molecular charges:
      ------------------

      Mulliken charges per centre and basis function type
      ---------------------------------------------------

                NE1   
      1s       2.0008
      2s       2.1231
      2px      2.2160
      2pz      1.0866
      2py      2.1618
      *s      -0.1239
      *px     -0.2054
      *pz     -0.0866
      *py      0.8276
      *d2+     0.0000
      *d1+     0.0000
      *d0      0.0000
      *d1-     0.0000
      *d2-     0.0000
      *f3+     0.0000
      *f2+     0.0000
      *f1+     0.0000
      *f0      0.0000
      *f1-     0.0000
      *f2-     0.0000
      *f3-     0.0000
      *g4+     0.0000
      *g3+     0.0000
      *g2+     0.0000
      *g1+     0.0000
      *g0      0.0000
      *g1-     0.0000
      *g2-     0.0000
      *g3-     0.0000
      *g4-     0.0000
      Total   10.0000

      N-E     -0.0000

      Total electronic charge=   10.000000

      Total            charge=   -0.000000
--



      Expectation values of various properties for root number:  2
      -----------------------------------------------------------


++    Molecular properties:
      ---------------------

      Charge (e):
                      =   -0.0000
      Dipole Moment (Debye):
      Origin of the operator (Ang)=    0.0000    0.0000    0.0000
                   X= -1.8960E-07               Y= -4.8968E-07               Z= -1.3979E-09           Total=  5.2510E-07
      Quadrupole Moment (Debye*Ang):
      Origin of the operator (Ang)=    0.0000    0.0000    0.0000
                  XX= -7.5251E+00              XY=  8.9629E-01              XZ=  1.1475E-04              YY= -1.6087E+01
                  YZ=  7.3668E-05              ZZ= -6.9596E+00
      In traceless form (Debye*Ang)
                  XX=  3.9983E+00              XY=  1.3444E+00              XZ=  1.7212E-04              YY= -8.8449E+00
                  YZ=  1.1050E-04              ZZ=  4.8466E+00
--

      Von Neumann Entropy (Root  3) =  1.00165


      Mulliken population analysis for root number:  3
      -----------------------------------------------


++    Molecular charges:
      ------------------

      Mulliken charges per centre and basis function type
      ---------------------------------------------------

                NE1   
      1s       2.0008
      2s       2.1231
      2px      2.1987
      2pz      1.0866
      2py      2.1697
      *s      -0.1239
      *px      0.7907
      *pz     -0.0866
      *py     -0.1591
      *d2+     0.0000
      *d1+     0.0000
      *d0      0.0000
      *d1-     0.0000
      *d2-     0.0000
      *f3+     0.0000
      *f2+     0.0000
      *f1+     0.0000
      *f0      0.0000
      *f1-     0.0000
      *f2-     0.0000
      *f3-     0.0000
      *g4+     0.0000
      *g3+     0.0000
      *g2+     0.0000
      *g1+     0.0000
      *g0      0.0000
      *g1-     0.0000
      *g2-     0.0000
      *g3-     0.0000
      *g4-     0.0000
      Total   10.0000

      N-E     -0.0000

      Total electronic charge=   10.000000

      Total            charge=   -0.000000
--



      Expectation values of various properties for root number:  3
      -----------------------------------------------------------


++    Molecular properties:
      ---------------------

      Charge (e):
                      =   -0.0000
      Dipole Moment (Debye):
      Origin of the operator (Ang)=    0.0000    0.0000    0.0000
                   X=  6.5641E-06               Y=  6.9178E-07               Z= -8.8332E-10           Total=  6.6004E-06
      Quadrupole Moment (Debye*Ang):
      Origin of the operator (Ang)=    0.0000    0.0000    0.0000
                  XX= -1.5789E+01              XY= -8.6537E-01              XZ=  2.0683E-04              YY= -7.5226E+00
                  YZ=  2.5049E-05              ZZ= -6.8861E+00
      In traceless form (Debye*Ang)
                  XX= -8.5849E+00              XY= -1.2981E+00              XZ=  3.1025E-04              YY=  3.8151E+00
                  YZ=  3.7574E-05              ZZ=  4.7698E+00
--

      Von Neumann Entropy (Root  4) =  1.00032


      Mulliken population analysis for root number:  4
      -----------------------------------------------


++    Molecular charges:
      ------------------

      Mulliken charges per centre and basis function type
      ---------------------------------------------------

                NE1   
      1s       2.0008
      2s       2.1231
      2px      2.1872
      2pz      2.1731
      2py      1.1002
      *s      -0.1239
      *px      0.7916
      *pz     -0.1732
      *py     -0.0789
      *d2+     0.0000
      *d1+     0.0000
      *d0      0.0000
      *d1-     0.0000
      *d2-     0.0000
      *f3+     0.0000
      *f2+     0.0000
      *f1+     0.0000
      *f0      0.0000
      *f1-     0.0000
      *f2-     0.0000
      *f3-     0.0000
      *g4+     0.0000
      *g3+     0.0000
      *g2+     0.0000
      *g1+     0.0000
      *g0      0.0000
      *g1-     0.0000
      *g2-     0.0000
      *g3-     0.0000
      *g4-     0.0000
      Total   10.0000

      N-E     -0.0000

      Total electronic charge=   10.000000

      Total            charge=   -0.000000
--



      Expectation values of various properties for root number:  4
      -----------------------------------------------------------


++    Molecular properties:
      ---------------------

      Charge (e):
                      =   -0.0000
      Dipole Moment (Debye):
      Origin of the operator (Ang)=    0.0000    0.0000    0.0000
                   X=  6.5657E-06               Y=  6.9696E-07               Z= -9.5928E-10           Total=  6.6025E-06
      Quadrupole Moment (Debye*Ang):
      Origin of the operator (Ang)=    0.0000    0.0000    0.0000
                  XX= -1.5763E+01              XY= -9.2220E-01              XZ=  7.3921E-05              YY= -6.9534E+00
                  YZ=  4.1797E-06              ZZ= -7.3811E+00
      In traceless form (Debye*Ang)
                  XX= -8.5959E+00              XY= -1.3833E+00              XZ=  1.1088E-04              YY=  4.6187E+00
                  YZ=  6.2695E-06              ZZ=  3.9771E+00
--

      Von Neumann Entropy (Root  5) =  0.89929


      Mulliken population analysis for root number:  5
      -----------------------------------------------


++    Molecular charges:
      ------------------

      Mulliken charges per centre and basis function type
      ---------------------------------------------------

                NE1   
      1s       2.0008
      2s       2.1231
      2px      2.2059
      2pz      2.1730
      2py      1.2241
      *s      -0.1239
      *px     -0.2060
      *pz     -0.1732
      *py      0.7760
      *d2+     0.0000
      *d1+     0.0000
      *d0      0.0000
      *d1-     0.0000
      *d2-     0.0000
      *f3+     0.0000
      *f2+     0.0000
      *f1+     0.0000
      *f0      0.0000
      *f1-     0.0000
      *f2-     0.0000
      *f3-     0.0000
      *g4+     0.0000
      *g3+     0.0000
      *g2+     0.0000
      *g1+     0.0000
      *g0      0.0000
      *g1-     0.0000
      *g2-     0.0000
      *g3-     0.0000
      *g4-     0.0000
      Total   10.0000

      N-E     -0.0000

      Total electronic charge=   10.000000

      Total            charge=   -0.000000
--



      Expectation values of various properties for root number:  5
      -----------------------------------------------------------


++    Molecular properties:
      ---------------------

      Charge (e):
                      =   -0.0000
      Dipole Moment (Debye):
      Origin of the operator (Ang)=    0.0000    0.0000    0.0000
                   X= -1.6859E-07               Y= -4.2974E-07               Z= -1.2695E-09           Total=  4.6163E-07
      Quadrupole Moment (Debye*Ang):
      Origin of the operator (Ang)=    0.0000    0.0000    0.0000
                  XX= -7.0644E+00              XY=  7.5204E-01              XZ=  1.1744E-05              YY= -1.4249E+01
                  YZ=  5.0141E-05              ZZ= -7.0279E+00
      In traceless form (Debye*Ang)
                  XX=  3.5738E+00              XY=  1.1281E+00              XZ=  1.7616E-05              YY= -7.2025E+00
                  YZ=  7.5211E-05              ZZ=  3.6286E+00
--

      Von Neumann Entropy (Root  6) =  1.99306


      Mulliken population analysis for root number:  6
      -----------------------------------------------


++    Molecular charges:
      ------------------

      Mulliken charges per centre and basis function type
      ---------------------------------------------------

                NE1   
      1s       2.0008
      2s       2.1231
      2px      2.1872
      2pz      1.0866
      2py      1.0992
      *s      -0.1239
      *px      0.8022
      *pz     -0.0866
      *py      0.9114
      *d2+     0.0000
      *d1+     0.0000
      *d0      0.0000
      *d1-     0.0000
      *d2-     0.0000
      *f3+     0.0000
      *f2+     0.0000
      *f1+     0.0000
      *f0      0.0000
      *f1-     0.0000
      *f2-     0.0000
      *f3-     0.0000
      *g4+     0.0000
      *g3+     0.0000
      *g2+     0.0000
      *g1+     0.0000
      *g0      0.0000
      *g1-     0.0000
      *g2-     0.0000
      *g3-     0.0000
      *g4-     0.0000
      Total   10.0000

      N-E     -0.0000

      Total electronic charge=   10.000000

      Total            charge=   -0.000000
--



      Expectation values of various properties for root number:  6
      -----------------------------------------------------------


++    Molecular properties:
      ---------------------

      Charge (e):
                      =   -0.0000
      Dipole Moment (Debye):
      Origin of the operator (Ang)=    0.0000    0.0000    0.0000
                   X=  6.5098E-06               Y=  2.1822E-07               Z= -2.4449E-09           Total=  6.5135E-06
      Quadrupole Moment (Debye*Ang):
      Origin of the operator (Ang)=    0.0000    0.0000    0.0000
                  XX= -1.9921E+01              XY= -3.6389E-02              XZ=  2.0627E-04              YY= -1.9574E+01
                  YZ=  7.9252E-05              ZZ= -1.0932E+01
      In traceless form (Debye*Ang)
                  XX= -4.6686E+00              XY= -5.4583E-02              XZ=  3.0940E-04              YY= -4.1472E+00
                  YZ=  1.1888E-04              ZZ=  8.8158E+00
--

      Von Neumann Entropy (Root  7) =  1.97958


      Mulliken population analysis for root number:  7
      -----------------------------------------------


++    Molecular charges:
      ------------------

      Mulliken charges per centre and basis function type
      ---------------------------------------------------

                NE1   
      1s       2.0008
      2s       2.1231
      2px      2.1842
      2pz      1.0866
      2py      1.0912
      *s      -0.1239
      *px      0.9677
      *pz     -0.0866
      *py      0.7568
      *d2+     0.0000
      *d1+     0.0000
      *d0      0.0000
      *d1-     0.0000
      *d2-     0.0000
      *f3+     0.0000
      *f2+     0.0000
      *f1+     0.0000
      *f0      0.0000
      *f1-     0.0000
      *f2-     0.0000
      *f3-     0.0000
      *g4+     0.0000
      *g3+     0.0000
      *g2+     0.0000
      *g1+     0.0000
      *g0      0.0000
      *g1-     0.0000
      *g2-     0.0000
      *g3-     0.0000
      *g4-     0.0000
      Total   10.0000

      N-E     -0.0000

      Total electronic charge=   10.000000

      Total            charge=   -0.000000
--



      Expectation values of various properties for root number:  7
      -----------------------------------------------------------


++    Molecular properties:
      ---------------------

      Charge (e):
                      =   -0.0000
      Dipole Moment (Debye):
      Origin of the operator (Ang)=    0.0000    0.0000    0.0000
                   X=  7.6287E-06               Y=  4.1104E-07               Z= -1.8522E-09           Total=  7.6398E-06
      Quadrupole Moment (Debye*Ang):
      Origin of the operator (Ang)=    0.0000    0.0000    0.0000
                  XX= -2.1316E+01              XY= -3.2464E-01              XZ= -2.0271E-05              YY= -1.8214E+01
                  YZ=  4.6421E-05              ZZ= -1.0941E+01
      In traceless form (Debye*Ang)
                  XX= -6.7380E+00              XY= -4.8696E-01              XZ= -3.0406E-05              YY= -2.0861E+00
                  YZ=  6.9632E-05              ZZ=  8.8242E+00
--

      Von Neumann Entropy (Root  8) =  1.97914


      Mulliken population analysis for root number:  8
      -----------------------------------------------


++    Molecular charges:
      ------------------

      Mulliken charges per centre and basis function type
      ---------------------------------------------------

                NE1   
      1s       2.0008
      2s       2.1231
      2px      2.1843
      2pz      1.0768
      2py      1.1012
      *s      -0.1239
      *px      0.9691
      *pz     -0.0858
      *py      0.7544
      *d2+     0.0000
      *d1+     0.0000
      *d0      0.0000
      *d1-     0.0000
      *d2-     0.0000
      *f3+     0.0000
      *f2+     0.0000
      *f1+     0.0000
      *f0      0.0000
      *f1-     0.0000
      *f2-     0.0000
      *f3-     0.0000
      *g4+     0.0000
      *g3+     0.0000
      *g2+     0.0000
      *g1+     0.0000
      *g0      0.0000
      *g1-     0.0000
      *g2-     0.0000
      *g3-     0.0000
      *g4-     0.0000
      Total   10.0000

      N-E     -0.0000

      Total electronic charge=   10.000000

      Total            charge=   -0.000000
--



      Expectation values of various properties for root number:  8
      -----------------------------------------------------------


++    Molecular properties:
      ---------------------

      Charge (e):
                      =   -0.0000
      Dipole Moment (Debye):
      Origin of the operator (Ang)=    0.0000    0.0000    0.0000
                   X=  7.6384E-06               Y=  4.1278E-07               Z= -2.2502E-09           Total=  7.6495E-06
      Quadrupole Moment (Debye*Ang):
      Origin of the operator (Ang)=    0.0000    0.0000    0.0000
                  XX= -2.1327E+01              XY= -3.2679E-01              XZ=  1.6157E-04              YY= -1.8205E+01
                  YZ=  6.5222E-05              ZZ= -1.0935E+01
      In traceless form (Debye*Ang)
                  XX= -6.7566E+00              XY= -4.9019E-01              XZ=  2.4236E-04              YY= -2.0738E+00
                  YZ=  9.7833E-05              ZZ=  8.8304E+00
--

      Von Neumann Entropy (Root  9) =  1.99959


      Mulliken population analysis for root number:  9
      -----------------------------------------------


++    Molecular charges:
      ------------------

      Mulliken charges per centre and basis function type
      ---------------------------------------------------

                NE1   
      1s       2.0008
      2s       2.1231
      2px      2.1871
      2pz      1.0848
      2py      1.0903
      *s      -0.1239
      *px      0.8023
      *pz     -0.0864
      *py      0.9219
      *d2+     0.0000
      *d1+     0.0000
      *d0      0.0000
      *d1-     0.0000
      *d2-     0.0000
      *f3+     0.0000
      *f2+     0.0000
      *f1+     0.0000
      *f0      0.0000
      *f1-     0.0000
      *f2-     0.0000
      *f3-     0.0000
      *g4+     0.0000
      *g3+     0.0000
      *g2+     0.0000
      *g1+     0.0000
      *g0      0.0000
      *g1-     0.0000
      *g2-     0.0000
      *g3-     0.0000
      *g4-     0.0000
      Total   10.0000

      N-E     -0.0000

      Total electronic charge=   10.000000

      Total            charge=   -0.000000
--



      Expectation values of various properties for root number:  9
      -----------------------------------------------------------


++    Molecular properties:
      ---------------------

      Charge (e):
                      =   -0.0000
      Dipole Moment (Debye):
      Origin of the operator (Ang)=    0.0000    0.0000    0.0000
                   X=  6.5067E-06               Y=  2.1429E-07               Z= -2.9889E-09           Total=  6.5102E-06
      Quadrupole Moment (Debye*Ang):
      Origin of the operator (Ang)=    0.0000    0.0000    0.0000
                  XX= -1.9947E+01              XY= -3.1259E-02              XZ=  4.3720E-04              YY= -1.9648E+01
                  YZ=  1.0351E-04              ZZ= -1.0956E+01
      In traceless form (Debye*Ang)
                  XX= -4.6448E+00              XY= -4.6888E-02              XZ=  6.5581E-04              YY= -4.1969E+00
                  YZ=  1.5526E-04              ZZ=  8.8417E+00
--

      Von Neumann Entropy (Root 10) =  1.99921


      Mulliken population analysis for root number: 10
      -----------------------------------------------


++    Molecular charges:
      ------------------

      Mulliken charges per centre and basis function type
      ---------------------------------------------------

                NE1   
      1s       2.0008
      2s       2.1231
      2px      2.1871
      2pz      1.0866
      2py      1.0897
      *s      -0.1239
      *px      0.8023
      *pz     -0.0866
      *py      0.9209
      *d2+     0.0000
      *d1+     0.0000
      *d0      0.0000
      *d1-     0.0000
      *d2-     0.0000
      *f3+     0.0000
      *f2+     0.0000
      *f1+     0.0000
      *f0      0.0000
      *f1-     0.0000
      *f2-     0.0000
      *f3-     0.0000
      *g4+     0.0000
      *g3+     0.0000
      *g2+     0.0000
      *g1+     0.0000
      *g0      0.0000
      *g1-     0.0000
      *g2-     0.0000
      *g3-     0.0000
      *g4-     0.0000
      Total   10.0000

      N-E     -0.0000

      Total electronic charge=   10.000000

      Total            charge=   -0.000000
--



      Expectation values of various properties for root number: 10
      -----------------------------------------------------------


++    Molecular properties:
      ---------------------

      Charge (e):
                      =   -0.0000
      Dipole Moment (Debye):
      Origin of the operator (Ang)=    0.0000    0.0000    0.0000
                   X=  6.5069E-06               Y=  2.1471E-07               Z= -2.5907E-09           Total=  6.5105E-06
      Quadrupole Moment (Debye*Ang):
      Origin of the operator (Ang)=    0.0000    0.0000    0.0000
                  XX= -1.9944E+01              XY= -3.1846E-02              XZ=  2.5904E-04              YY= -1.9640E+01
                  YZ=  8.5012E-05              ZZ= -1.0954E+01
      In traceless form (Debye*Ang)
                  XX= -4.6471E+00              XY= -4.7770E-02              XZ=  3.8857E-04              YY= -4.1907E+00
                  YZ=  1.2752E-04              ZZ=  8.8378E+00
--


  Input file to MOLDEN was generated!


  Input file to MOLDEN was generated!


  Input file to MOLDEN was generated!


  Input file to MOLDEN was generated!


  Input file to MOLDEN was generated!


  Input file to MOLDEN was generated!


  Input file to MOLDEN was generated!


  Input file to MOLDEN was generated!


  Input file to MOLDEN was generated!


  Input file to MOLDEN was generated!


  Input file to MOLDEN was generated!

      Average orbitals are written to the RASORB file
      Natural orbitals for root   1 are written to the RASORB.1 file
      Natural orbitals for root   2 are written to the RASORB.2 file
      Natural orbitals for root   3 are written to the RASORB.3 file
      Natural orbitals for root   4 are written to the RASORB.4 file
      Natural orbitals for root   5 are written to the RASORB.5 file
      Natural orbitals for root   6 are written to the RASORB.6 file
      Natural orbitals for root   7 are written to the RASORB.7 file
      Natural orbitals for root   8 are written to the RASORB.8 file
      Natural orbitals for root   9 are written to the RASORB.9 file
      Natural orbitals for root  10 are written to the RASORB.10 file
      Spin density orbitals for root   1 are written to the SPDORB.1 file
      Spin density orbitals for root   2 are written to the SPDORB.2 file
      Spin density orbitals for root   3 are written to the SPDORB.3 file
      Spin density orbitals for root   4 are written to the SPDORB.4 file
      Spin density orbitals for root   5 are written to the SPDORB.5 file
      Spin density orbitals for root   6 are written to the SPDORB.6 file
      Spin density orbitals for root   7 are written to the SPDORB.7 file
      Spin density orbitals for root   8 are written to the SPDORB.8 file
      Spin density orbitals for root   9 are written to the SPDORB.9 file
      Spin density orbitals for root  10 are written to the SPDORB.10 file

 ###############################################################################
 ###############################################################################
 ###                                                                         ###
 ###                                                                         ###
 ###    WARNING: RunFile label BirthCertificate                              ###
 ###    was used       53 times                                              ###
 ###                                                                         ###
 ###                                                                         ###
 ###############################################################################
 ###############################################################################
 ###############################################################################
 ###############################################################################
 ###                                                                         ###
 ###                                                                         ###
 ###    WARNING: RunFile label nBas                                          ###
 ###    was used       57 times                                              ###
 ###                                                                         ###
 ###                                                                         ###
 ###############################################################################
 ###############################################################################
--- Stop Module: rasscf at Fri Aug  7 10:00:11 2020 /rc=_RC_ALL_IS_WELL_ ---
*** files: gorb.rasscf.molden gorb.rasscf.molden.1 gorb.rasscf.molden.2 gorb.rasscf.molden.3 gorb.rasscf.molden.4 gorb.rasscf.molden.5 gorb.rasscf.molden.6 gorb.rasscf.molden.7
           gorb.rasscf.molden.8 gorb.rasscf.molden.9 gorb.rasscf.molden.10 gorb.RasOrb gorb.RasOrb.1 gorb.RasOrb.2 gorb.RasOrb.3 gorb.RasOrb.4 gorb.RasOrb.5 gorb.RasOrb.6
           gorb.RasOrb.7 gorb.RasOrb.8 gorb.RasOrb.9 gorb.RasOrb.10 gorb.rasscf.h5 gorb.SpdOrb.1 gorb.SpdOrb.2 gorb.SpdOrb.3 gorb.SpdOrb.4 gorb.SpdOrb.5 gorb.SpdOrb.6 gorb.SpdOrb.7
           gorb.SpdOrb.8 gorb.SpdOrb.9 gorb.SpdOrb.10 xmldump
    saved to directory /home/gayverjr/OpenCAP/molcas_tests/carts
--- Module rasscf spent 19 seconds ---

*** symbolic link created: INPORB -> gorb.RasOrb
--- Start Module: caspt2 at Fri Aug  7 10:00:11 2020 ---

()()()()()()()()()()()()()()()()()()()()()()()()()()()()()()()()()()()()()()()()()()()()()()()()()()

                                              &CASPT2

                                   only a single process is used
                       available to each process: 20 GB of memory, 16 threads
                                             pid: 47419
()()()()()()()()()()()()()()()()()()()()()()()()()()()()()()()()()()()()()()()()()()()()()()()()()()


++    Wave function specifications:
      -----------------------------

      Number of closed shell electrons           4
      Number of electrons in active shells       4
      Max number of holes in RAS1 space          0
      Max number of electrons in RAS3 space      0
      Number of inactive orbitals                2
      Number of active orbitals                  4
      Number of secondary orbitals              73
      Spin quantum number                      0.0
      State symmetry                             1
      Number of CSFs                            20
      Number of root(s) available               10
      Root passed to geometry opt.              10
      A file JOBMIX will be created
      This is a MULTI-STATE CASSCF reference
      Number of CI roots used                   10
      These are:                                 1   2   3   4   5   6   7   8   9  10
      Off-diagonal elements of Heff are computed
--

++    Orbital specifications:
      -----------------------

      Symmetry species                           1
                                                 a
      Frozen orbitals                            1
      Inactive orbitals                          2
      Active orbitals                            4
      Secondary orbitals                        73
      Deleted orbitals                           0
      Number of basis functions                 80
--

++    CASPT2 specifications:
      ----------------------

      Type of calculation                        XMS-CASPT2
      Fock operator                              state-average
      IPEA shift                                 0.25
      Real shift                                 0.00
      Imaginary shift                            0.00
      The input orbitals will be transformed to quasi-canonical
      The input states will be rotated to diagonalize the Fock operator
--

--------------------------------------------------------------------------------
 Estimated memory requirements:
  POLY3 :                   250840
  RHS:                      316557
  SIGMA :                   358040
  PRPCTL:                        0
 Available workspace:   2249987924

++ CASPT2 computation for group   1

********************************************************************************
 Multi-State initialization phase begins for group   1
--------------------------------------------------------------------------------
********************************************************************************
 Compute H0 matrices for state    1
--------------------------------------------------------------------------------
--------------------------------------------------------------------------------
 H0 matrices have been computed.

********************************************************************************
  CASPT2 EQUATION SOLUTION
--------------------------------------------------------------------------------

  Total nr of CASPT2 parameters:
   Before reduction:      106817
   After  reduction:      102933

 The contributions to the second order correlation energy in atomic units.
-----------------------------------------------------------------------------------------------------------------------------
  IT.      VJTU        VJTI        ATVX        AIVX        VJAI        BVAT        BJAT        BJAI        TOTAL       RNORM  
-----------------------------------------------------------------------------------------------------------------------------
   1    -0.015044   -0.000136   -0.138295   -0.107189   -0.002892   -0.090874   -0.127148   -0.055183   -0.536761    0.000862
   2    -0.015048   -0.000136   -0.138387   -0.107238   -0.002891   -0.090841   -0.127135   -0.055181   -0.536856    0.000026
-----------------------------------------------------------------------------------------------------------------------------

  FINAL CASPT2 RESULT:

      Reference energy:        -128.3729269507
      E2 (Non-variational):      -0.5368595410
      E2 (Variational):          -0.5368595227
      Total energy:            -128.9097864734
      Residual norm:              0.0000006534
      Reference weight:           0.89014

      Contributions to the CASPT2 correlation energy
      Active & Virtual Only:         -0.2292308239
      One Inactive Excited:          -0.2494205417
      Two Inactive Excited:          -0.0582081754


++ Denominators, etc.
--------------------------------------------------------------------------------------------------------------
 Report on small energy denominators, large coefficients, and large energy contributions.
[...]
           -0.00000000      0.00000001     -0.00162123      0.00000639     -0.00000593
           -0.00000093     -0.00000963     -0.00004525     -0.01022755      0.00000750

           -0.00000174     -0.00284416     -0.00000012     -0.00000136      0.00001990
            0.00000010      0.00000011     -0.00104337     -0.00028841     -0.00000916
            0.02053735      0.00000536      0.00000011      0.00002211     -0.00054684
            0.00000335     -0.00000032     -0.00042814      0.00156263      0.00005950
            0.00000063      0.00170183      0.00000007      0.00000082     -0.00001246
            0.85352614     -0.00288980     -0.00038262      0.01794575     -0.52042781
           -0.00010060     -0.00010979      0.96229228      0.27188245      0.00850337
           -0.00042135      0.99997492      0.00004123      0.00045251     -0.00622803
           -0.00016717     -0.00021797     -0.27201401      0.96172280      0.03308981
            0.52064492      0.00554639      0.00072587     -0.02905880      0.85319902

       In terms of the input states:
            0.97721026     -0.21227035      0.00000064      0.00022681     -0.00000003
           -0.00000000      0.00000060      0.00002612      0.00072101      0.99999810
            0.00004409      0.00127149      0.00376027      0.99998452     -0.00072110
           -0.00000001     -0.00000101      0.99998988     -0.00376031     -0.00002340
            0.21226554      0.97720537     -0.00000372     -0.00125185      0.00000032
           -0.00000151     -0.00000499      0.00000754      0.00298157     -0.00000212
            0.00000000      0.00000000     -0.00004377      0.00000209      0.00181140
           -0.00185917     -0.00305652     -0.00000005     -0.00000720      0.00000001
            0.00000001      0.00000002     -0.00246934      0.00000956     -0.00002898
            0.00000587      0.00000879     -0.00001476     -0.00240733      0.00000189

           -0.00000045      0.00116798      0.00000005      0.00000053     -0.00000757
            0.00000016      0.00000019     -0.00174528     -0.00048554     -0.00001532
           -0.00300272      0.00001928      0.00000129     -0.00008233      0.00237945
            0.00000321     -0.00000050     -0.00065817      0.00237883      0.00008758
            0.00000840      0.00338143      0.00000014      0.00000165     -0.00002506
            0.99995647      0.00022367      0.00005901     -0.00011354      0.00883793
           -0.00010304     -0.00011208      0.95895420      0.28341547      0.00889947
           -0.00019148      0.99998690      0.00004313      0.00036367     -0.00363752
           -0.00016595     -0.00021636     -0.28355366      0.95838569      0.03298522
           -0.00883029      0.00364599      0.00081908     -0.03415410      0.99936768

--

  THE ORIGINAL CI ARRAYS ARE NOW MIXED AS LINEAR
  COMBINATIONS, GIVEN BY THE EIGENVECTORS.
  A NEW JOBIPH FILE NAMED 'JOBMIX' IS PREPARED.
********************************************************************************

++ Mixed CI coefficients:
  The CI coefficients for the MIXED state nr.   1
--------------------------------------------------------------------------------
 CI COEFFICIENTS LARGER THAN  0.50D-01
  Occupation of active orbitals, and spin coupling
  of open shells. (u,d: Spin up or down).
  SGUGA info is (Midvert:IsyUp:UpperWalk/LowerWalk)
        Conf  SGUGA info        Occupation    Coefficient         Weight
           1  ( 1:1:   1/   1)   2200            0.995466       0.990953
           2  ( 2:1:   1/   1)   2ud0           -0.094873       0.009001

  The CI coefficients for the MIXED state nr.   2
--------------------------------------------------------------------------------
 CI COEFFICIENTS LARGER THAN  0.50D-01
  Occupation of active orbitals, and spin coupling
  of open shells. (u,d: Spin up or down).
  SGUGA info is (Midvert:IsyUp:UpperWalk/LowerWalk)
        Conf  SGUGA info        Occupation    Coefficient         Weight
           1  ( 1:1:   1/   1)   2200            0.094594       0.008948
           2  ( 2:1:   1/   1)   2ud0            0.994853       0.989733

  The CI coefficients for the MIXED state nr.   3
--------------------------------------------------------------------------------
 CI COEFFICIENTS LARGER THAN  0.50D-01
  Occupation of active orbitals, and spin coupling
  of open shells. (u,d: Spin up or down).
  SGUGA info is (Midvert:IsyUp:UpperWalk/LowerWalk)
        Conf  SGUGA info        Occupation    Coefficient         Weight
           3  ( 2:1:   2/   1)   2u0d            0.999677       0.999354

  The CI coefficients for the MIXED state nr.   4
--------------------------------------------------------------------------------
 CI COEFFICIENTS LARGER THAN  0.50D-01
  Occupation of active orbitals, and spin coupling
  of open shells. (u,d: Spin up or down).
  SGUGA info is (Midvert:IsyUp:UpperWalk/LowerWalk)
        Conf  SGUGA info        Occupation    Coefficient         Weight
           5  ( 2:1:   2/   2)   u20d           -0.998066       0.996135
          15  ( 4:1:   1/   1)   uudd            0.058200       0.003387

  The CI coefficients for the MIXED state nr.   5
--------------------------------------------------------------------------------
 CI COEFFICIENTS LARGER THAN  0.50D-01
  Occupation of active orbitals, and spin coupling
  of open shells. (u,d: Spin up or down).
  SGUGA info is (Midvert:IsyUp:UpperWalk/LowerWalk)
        Conf  SGUGA info        Occupation    Coefficient         Weight
           4  ( 2:1:   1/   2)   u2d0           -0.999562       0.999124

  The CI coefficients for the MIXED state nr.   6
--------------------------------------------------------------------------------
 CI COEFFICIENTS LARGER THAN  0.50D-01
  Occupation of active orbitals, and spin coupling
  of open shells. (u,d: Spin up or down).
  SGUGA info is (Midvert:IsyUp:UpperWalk/LowerWalk)
        Conf  SGUGA info        Occupation    Coefficient         Weight
           5  ( 2:1:   2/   2)   u20d           -0.056612       0.003205
          10  ( 3:1:   2/   2)   udud            0.074701       0.005580
          15  ( 4:1:   1/   1)   uudd           -0.995276       0.990574

  The CI coefficients for the MIXED state nr.   7
--------------------------------------------------------------------------------
 CI COEFFICIENTS LARGER THAN  0.50D-01
  Occupation of active orbitals, and spin coupling
  of open shells. (u,d: Spin up or down).
  SGUGA info is (Midvert:IsyUp:UpperWalk/LowerWalk)
        Conf  SGUGA info        Occupation    Coefficient         Weight
           6  ( 3:1:   1/   1)   2020           -0.462954       0.214327
           8  ( 3:1:   3/   1)   2002            0.529876       0.280769
          12  ( 3:1:   1/   3)   0220            0.448926       0.201534
          14  ( 3:1:   3/   3)   0202           -0.550321       0.302853

  The CI coefficients for the MIXED state nr.   8
--------------------------------------------------------------------------------
 CI COEFFICIENTS LARGER THAN  0.50D-01
  Occupation of active orbitals, and spin coupling
  of open shells. (u,d: Spin up or down).
  SGUGA info is (Midvert:IsyUp:UpperWalk/LowerWalk)
        Conf  SGUGA info        Occupation    Coefficient         Weight
           7  ( 3:1:   2/   1)   20ud            0.191057       0.036503
           9  ( 3:1:   1/   2)   ud20           -0.621350       0.386076
          11  ( 3:1:   3/   2)   ud02            0.735035       0.540276
          13  ( 3:1:   2/   3)   02ud           -0.191438       0.036649

  The CI coefficients for the MIXED state nr.   9
--------------------------------------------------------------------------------
 CI COEFFICIENTS LARGER THAN  0.50D-01
  Occupation of active orbitals, and spin coupling
  of open shells. (u,d: Spin up or down).
  SGUGA info is (Midvert:IsyUp:UpperWalk/LowerWalk)
        Conf  SGUGA info        Occupation    Coefficient         Weight
           7  ( 3:1:   2/   1)   20ud           -0.679476       0.461687
           9  ( 3:1:   1/   2)   ud20           -0.174530       0.030461
          11  ( 3:1:   3/   2)   ud02            0.206453       0.042623
          13  ( 3:1:   2/   3)   02ud            0.680834       0.463535

  The CI coefficients for the MIXED state nr.  10
--------------------------------------------------------------------------------
 CI COEFFICIENTS LARGER THAN  0.50D-01
  Occupation of active orbitals, and spin coupling
  of open shells. (u,d: Spin up or down).
  SGUGA info is (Midvert:IsyUp:UpperWalk/LowerWalk)
        Conf  SGUGA info        Occupation    Coefficient         Weight
          10  ( 3:1:   2/   2)   udud            0.996325       0.992663
          15  ( 4:1:   1/   1)   uudd            0.073017       0.005331

--

--- Stop Module: caspt2 at Fri Aug  7 10:00:21 2020 /rc=_RC_ALL_IS_WELL_ ---
*** files: xmldump
    saved to directory /home/gayverjr/OpenCAP/molcas_tests/carts
--- Module caspt2 spent 10 seconds ---

*** symbolic link created: INPORB -> gorb.RasOrb
--- Start Module: rassi at Fri Aug  7 10:00:21 2020 ---

()()()()()()()()()()()()()()()()()()()()()()()()()()()()()()()()()()()()()()()()()()()()()()()()()()

                                               &RASSI

                                   only a single process is used
                       available to each process: 20 GB of memory, 16 threads
                                             pid: 34635
()()()()()()()()()()()()()()()()()()()()()()()()()()()()()()()()()()()()()()()()()()()()()()()()()()


      ********************************************************************************
      *                                                                              *
      *                             General data section                             *
      *                                                                              *
      ********************************************************************************

   Specific data for JOBIPH file JOBIPH                                                                                                                          
   -------------------------------------

   Header from SEWARD:
                                                                               
        Integrals generated by seward 4.2.0  , Fri Aug  7 09:59:47 2020        

   CASSCF title (first line only):
       (No title given)                                                        

   STATE IRREP:                            1
   SPIN MULTIPLICITY:                      1
   ACTIVE ELECTRONS:                       4
   MAX RAS1 HOLES:                         0
   MAX RAS3 ELECTRONS:                     0
   NR OF CONFIG:                          20

  Info: creating TDMFILE
        estimated file size                  6750 kB
        TDMs in AO format


   The following data are common to all the states:
   ------------------------------------------------
   (note: frozen counts as inactive, deleted as secondary)

      Nr of irreps: 1

                 Total     No./Irrep 
      Irrep                  1
                             a

      INACTIVE       3       3
      ACTIVE         4       4
      SECONDARY     73      73
      BASIS         80      80

      RAS1           0       0
      RAS2           4       4
      RAS3           0       0

        MATRIX ELEMENTS WILL BE COMPUTED FOR THE FOLLOWING ONE-ELECTRON OPERATORS, UNLESS ZERO BY SYMMETRY.
   (Herm=Hermitian, Anti=Antihermitian, Sing=Singlet operator, Trip=Triplet operator)
     MLTPL  0   1 (HERMSING)     MLTPL  1   1 (HERMSING)     MLTPL  1   2 (HERMSING)
     MLTPL  1   3 (HERMSING)     MLTPL  2   1 (HERMSING)     MLTPL  2   2 (HERMSING)
     MLTPL  2   3 (HERMSING)     MLTPL  2   4 (HERMSING)     MLTPL  2   5 (HERMSING)
     MLTPL  2   6 (HERMSING)     VELOCITY   1 (ANTISING)     VELOCITY   2 (ANTISING)
     VELOCITY   3 (ANTISING)     ANGMOM     1 (ANTISING)     ANGMOM     2 (ANTISING)
     ANGMOM     3 (ANTISING)     MLTPV  2   1 (ANTISING)     MLTPV  2   2 (ANTISING)
     MLTPV  2   3 (ANTISING)     MLTPV  2   4 (ANTISING)     MLTPV  2   5 (ANTISING)
     MLTPV  2   6 (ANTISING)

       EIGENSTATES OF A SPIN-FREE HAMILTONIAN WILL BE COMPUTED BASED ON:

  a (effective) Hamiltonian matrix that was read from the wavefunction file(s).
  SO coupling elements will be added.
       EIGENSTATES OF SPIN-ORBIT HAMILTONIAN WILL BE COMPUTED
        MATRIX ELEMENTS OVER SPIN EIGENSTATES FOR:
     MLTPL  0   1 (HERMSING)     MLTPL  1   1 (HERMSING)     MLTPL  1   2 (HERMSING)
     MLTPL  1   3 (HERMSING)     MLTPL  2   1 (HERMSING)     MLTPL  2   2 (HERMSING)
     MLTPL  2   3 (HERMSING)     MLTPL  2   4 (HERMSING)     MLTPL  2   5 (HERMSING)
     MLTPL  2   6 (HERMSING)     VELOCITY   1 (ANTISING)     VELOCITY   2 (ANTISING)
     VELOCITY   3 (ANTISING)     ANGMOM     1 (ANTISING)     ANGMOM     2 (ANTISING)
     ANGMOM     3 (ANTISING)     MLTPV  2   1 (ANTISING)     MLTPV  2   2 (ANTISING)
     MLTPV  2   3 (ANTISING)     MLTPV  2   4 (ANTISING)     MLTPV  2   5 (ANTISING)
     MLTPV  2   6 (ANTISING)

  Nr of states:                   10

   State:        1   2   3   4   5   6   7   8   9  10
  JobIph:        1   1   1   1   1   1   1   1   1   1
 Root nr:        1   2   3   4   5   6   7   8   9  10

  HAMILTONIAN MATRIX FOR THE ORIGINAL STATES:

  Diagonal, with energies
   -128.83817355   -128.11166521   -128.11191471   -128.11194233   -128.15159435
   -127.04716041   -126.92238948   -126.92305226   -126.92236521   -126.92126001

      OVERLAP MATRIX FOR THE ORIGINAL STATES:

  Diagonal, with elements
      1.00000000      1.00000000      1.00000000      1.00000000      1.00000000
      1.00000000      1.00000000      1.00000000      1.00000000      1.00000000

::    RASSI State    1     Total energy:   -128.83817355
::    RASSI State    2     Total energy:   -128.11166521
::    RASSI State    3     Total energy:   -128.11191471
::    RASSI State    4     Total energy:   -128.11194233
::    RASSI State    5     Total energy:   -128.15159435
::    RASSI State    6     Total energy:   -127.04716041
::    RASSI State    7     Total energy:   -126.92238948
::    RASSI State    8     Total energy:   -126.92305226
::    RASSI State    9     Total energy:   -126.92236521
::    RASSI State   10     Total energy:   -126.92126001



      ****************************************************************************************************
      *                                                                                                  *
      *                                         Spin-free section                                        *
      *                                                                                                  *
      *                 Note: index according to input order, order according to energy.                 *
      *                                                                                                  *
      ****************************************************************************************************



  SPIN-FREE ENERGIES:
  (Shifted by EMIN (a.u.) =       -128.8381735537)

 SF State       Relative EMIN(au)   Rel lowest level(eV)    D:o, cm**(-1)      L_eff

     1             0.0000000000        0.0000000000              0.0000         0.1
     5             0.6865792046       18.6827719247         150686.7178         0.9
     4             0.7262312222       19.7617582917         159389.3298         1.0
     3             0.7262588388       19.7625097765         159395.3909         1.0
     2             0.7265083397       19.7692990413         159450.1500         1.0
     6             1.7910131417       48.7359503713         393081.9490         0.1
     8             1.9151212936       52.1131052282         420320.5399         2.4
     7             1.9157840757       52.1311404469         420466.0038         2.4
     9             1.9158083475       52.1318009169         420471.3308         2.4
    10             1.9169135411       52.1618747675         420713.8928         2.4

++ Dipole transition strengths (spin-free states):
   -----------------------------------------------
     for osc. strength at least  1.00000000E-05

  ( Max oscillator strength is only    1.6920671785451238E-013 )
--

++ Velocity transition strengths (spin-free states):
   -------------------------------------------------
     for osc. strength at least  1.00000000E-05

  ( Max oscillator strength is only    1.6659116738538184E-010 )
--

++ Length and velocity gauge comparison (spin-free states):
   --------------------------------------------------------

 --------------------------------------------------
 A comparison between the dipole oscillator strengths in 
 length and velocity gauge will be performed

 All dipole oscillator differences above the tolerance of   0.10000000000000001       will be printed 

 Due to basis set deficiency these oscillator may be problematic 

 The tolerance is defined as ABS(1-O_l/O_v) 
 O_l : dipole oscillator strength in length gauge
 O_p : dipole oscillator strength in velocity gauge
 --------------------------------------------------

 No problematic oscillator strengths above the tolerance   0.10000000000000001       have been found

--

 Electric-dipole - electric-octupole not included
 Electric-dipole - magnetic-quadrupole not included


      ****************************************************************************************************
      *                                                                                                  *
      *                                    Special properties section                                    *
      *                                                                                                  *
      ****************************************************************************************************


++ I/O STATISTICS
 
  I. General I/O information
  - - - - - - - - - - - - - - - - - - - - - - - - - - - - - - - - - - - - - - - - - - -
  Unit  Name          Flsize      Write/Read            MBytes           Write/Read
                      (MBytes)       Calls              In/Out           Time, sec.
  - - - - - - - - - - - - - - - - - - - - - - - - - - - - - - - - - - - - - - - - - - -
   1  SCRATCH           0.00 .      10/      55 .      0.0/      0.0 .       0/       0
   2  ANNI              0.00 .       0/       0 .      0.0/      0.0 .       0/       0
   3  RUNFILE          13.35 .     182/    3450 .      1.3/     25.0 .       0/       0
   4  ONEINT            2.10 .       0/    7342 .      0.0/   3357.7 .       0/       0
   5  JOBIPH            2.25 .       0/      98 .      0.0/      1.3 .       0/       0
   6  TDMFILE           5.37 .     110/     110 .      5.4/      5.4 .       0/       0
  - - - - - - - - - - - - - - - - - - - - - - - - - - - - - - - - - - - - - - - - - - -
   *  TOTAL            23.08 .     302/   11055 .      6.6/   3389.4 .       0/       0
  - - - - - - - - - - - - - - - - - - - - - - - - - - - - - - - - - - - - - - - - - - -
 
  II. I/O Access Patterns
  - - - - - - - - - - - - - - - - - - - -
  Unit  Name               % of random
                         Write/Read calls
  - - - - - - - - - - - - - - - - - - - -
   1  SCRATCH             90.0/ 100.0
   2  ANNI                 0.0/   0.0
   3  RUNFILE             28.6/  10.9
   4  ONEINT               0.0/  49.4
   5  JOBIPH               0.0/  75.5
   6  TDMFILE              0.0/  48.2
  - - - - - - - - - - - - - - - - - - - -
--
--- Stop Module: rassi at Fri Aug  7 10:00:23 2020 /rc=_RC_ALL_IS_WELL_ ---
*** files: gorb.rassi.h5 xmldump
    saved to directory /home/gayverjr/OpenCAP/molcas_tests/carts
--- Module rassi spent 1 second ---

.##################.
.# Happy landing! #.
.##################.

    Timing: Wall=37.42 User=292.07 System=30.75
