******************************************************
*** WorkDir and CurrDir are the same, not cleaned! ***
******************************************************
   This run of MOLCAS is using the pymolcas driver

                             OPE
                             OPE          NMOL  CASOP  ENMOLC A   SO
                 OPE        NMOLC        AS  OP EN  MO LC     AS  OP
                OPENM       OL CA        SO  PE NM  OL CA     SOP EN
                OP EN      MO   LC       AS  OP ENMOL  CASO   PENMOL
                OP  EN     MO   LC       AS  OP EN     MO     LC ASO
               OP   E  NMOL  C  AS       OP  EN MO     LC     AS  OP
               OP  E   NMO   LC AS        OPEN  MO     LCASOP EN   M
               O  PEN   MO  LCA  SO
            OPE   NMO   L   CAS    OP
        OPENMOL  CASOP     ENMOL   CASOPE
     OPENMOLCA   SOPENMOLCASOPEN   MOLCASOPE
    OPENMOLCAS   OP           EN   MOL    CAS
    OPENMOLCAS       OP  ENM        O     LCA
    OPENMOLCAS    OPEN  MOLCASO     P  E  NMO
    OPENMOLCAS     OP               E  N  MOL
    OPENMOLCA   SO           PENM   O  L  CAS    OPEN    MO    LCAS
    OPENMOLCA   SOP           ENM   O  L  CAS   OP  EN  MOLC  AS   O
    OPENMOLCA   SOPE           NM      O  LCA   S      OP  EN MO
    OPENMOLC                AS         O  PEN   M      OL  CA  SOPE
    OPENMO        LCASOPE  NMOL        C  ASO   P      ENMOLC     AS
    OPE     NMO      LCA  SO     P     E   NM   OL  CA SO  PE N   MO
          OPENMOLCA            SOPE   NMO        LCAS  O    P  ENMO
     OPENMOLCASOPENMOLCASOPENMOLCASOPENMOLCA
        OPENMOLCASOPENMOLCASOPENMOLCASOPE
            OPENMOLCASOPENMOLCASOPENM
               OPENMOLCASOPENMOLCA        version: 19.11
                   OPENMOLCASO
                       OPE                tag: 1162-ga18ab34

 OpenMolcas is free software; you can redistribute it and/or modify it
 under the terms of the GNU Lesser General Public License version 2.1.
 OpenMolcas is distributed in the hope that it will be useful, but it
 is provided "as is" and without any express or implied warranties.
 For more details see the full text of the license in the file
 LICENSE or in <http://www.gnu.org/licenses/>.

                 Copyright (C) The OpenMolcas Authors
           For the author list and the recommended citation,
                   consult the file CONTRIBUTORS.md

           *************************************************
           * pymolcas version py2.08                       *
           *   build bed633bbe89b7744c23cdbfc3f64969c      *
           *   (after the EMIL interpreter by V. Veryazov) *
           *************************************************

configuration info
------------------
C Compiler ID: GNU
C flags: -std=gnu99 -fopenmp
Fortran Compiler ID: GNU
Fortran flags: -fno-aggressive-loop-optimizations -cpp -fdefault-integer-8 -fopenmp
Definitions: _MOLCAS_;_I8_;_LINUX_;_MKL_;_DMRG_
Parallel: OFF (GA=OFF)


   ----------------------------------------------------------------------
  |
  |             Project: ms_spherical
  |      Submitted from: /scratch/gayverjr/ms_spherical.2374919225
  |        Scratch area: /scratch/gayverjr/ms_spherical.2374919225
  |     Save outputs to: /home/gayverjr/OpenCAP/molcas_tests
  |              Molcas: /home/qcsoftware/OpenMolcas/qcmaquis_build/build
  |
  | Scratch area is NOT empty
  |
  |      MOLCAS_DRIVER = /home/qcsoftware/bin/pymolcas
  | MOLCAS_NEW_WORKDIR = YES
  |      MOLCAS_NPROCS = 16
  |      MOLCAS_SOURCE = /home/qcsoftware/OpenMolcas/Molcas_src
  |   MOLCAS_STRUCTURE = 0
  |
   ----------------------------------------------------------------------

++ ---------   Input file   ---------

&GATEWAY
Expert
Basis set
N ..... / inline
   7.00   1
     9    3
               0.4150110000E+04
               0.6200840000E+03
               0.1416880000E+03
               0.4033670000E+02
               0.1302670000E+02
               0.4470030000E+01
               0.5425220000E+01
               0.1149150000E+01
               0.2832050000E+00
      0.1845409911E-02       0.00000000             0.00000000
      0.1416449932E-01       0.00000000             0.00000000
      0.6863249671E-01       0.00000000             0.00000000
      0.2285739890E+00       0.00000000             0.00000000
      0.4661619776E+00       0.00000000             0.00000000
      0.3656719825E+00       0.00000000             0.00000000
      0.00000000            -0.4133000774E+00       0.00000000
      0.00000000             0.1224417267E+01       0.00000000
      0.00000000             0.00000000             0.1000000000E+01
     3    2
               0.5425220000E+01
               0.1149150000E+01
               0.2832050000E+00
      0.2379720162E+00       0.00000000
      0.8589530586E+00       0.00000000
      0.00000000             0.1000000000E+01
 N1  0.0  0.0  1.039
 N2  0.0  0.0  -1.039
End of Basis
Basis set
X ..... / inline
   0.00   4
     6    1
               0.4150110000E+04
               0.6200840000E+03
               0.1416880000E+03
               0.4033670000E+02
               0.1302670000E+02
               0.4470030000E+01
      0.1845409911E-02
      0.1416449932E-01
      0.6863249671E-01
      0.2285739890E+00
      0.4661619776E+00
      0.3656719825E+00
     1    1
               0.5425220000E+01
      1.00000
     1    1
               0.1870
      1.0000
     1    1
               0.3492
      1.0000
     1    1
               8.345000E+00
      1.000000E+00
X1  0.000  0.000  0.000
End of basis

&SEWARD

&SCF

&RASSCF
Inactive = 6
Ras2=8
NActEl=2,0,0
CIROOT= 16 16 1

&CASPT2
MAXIter = 50
MULtistate = all

&RASSI
TRD1

-- ----------------------------------

--- Start Module: gateway at Sat Aug  8 14:28:48 2020 ---

()()()()()()()()()()()()()()()()()()()()()()()()()()()()()()()()()()()()()()()()()()()()()()()()()()

                                              &GATEWAY

                                   only a single process is used
                       available to each process: 20 GB of memory, 16 threads
                                              pid: 493
()()()()()()()()()()()()()()()()()()()()()()()()()()()()()()()()()()()()()()()()()()()()()()()()()()

 ###############################################################################
 ###############################################################################
 ###                                                                         ###
 ###                                                                         ###
 ###    WARNING:  EXPERT option is ON!                                       ###
 ###                                                                         ###
 ###                                                                         ###
 ###############################################################################
 ###############################################################################

++    Symmetry information:
      ---------------------

                    Character Table for C1 

                             E  
                    a        1  x, y, xy, Rz, z, xz, Ry, yz, Rx, I
--


++    Basis set information:
      ----------------------


      Basis set label: N...............................................................................

      Electronic valence basis set:
      ------------------
      Associated Effective Charge   7.000000 au
      Associated Actual Charge      7.000000 au
      Nuclear Model: Point charge

      Shell  nPrim  nBasis  Cartesian Spherical Contaminant
         s       9       3        X                  
         p       3       2        X                  


      Basis set label: X...............................................................................

      Electronic valence basis set:
      ------------------
      Associated Effective Charge   0.000000 au
      Associated Actual Charge      0.000000 au
      Nuclear Model: Point charge

      Shell  nPrim  nBasis  Cartesian Spherical Contaminant
         s       6       1        X                  
         p       1       1        X                  
         d       1       1                 X         
         f       1       1                 X         
         g       1       1                 X         
--


++    Molecular structure info:
      -------------------------

                    ************************************************ 
                    **** Cartesian Coordinates / Bohr, Angstrom **** 
                    ************************************************ 

     Center  Label                x              y              z                     x              y              z
        1      N1               0.000000       0.000000       1.039000              0.000000       0.000000       0.549815
        2      N2               0.000000       0.000000      -1.039000              0.000000       0.000000      -0.549815
        3      X1               0.000000       0.000000       0.000000              0.000000       0.000000       0.000000

                    *************************************** 
                    *    InterNuclear Distances / Bohr    * 
                    *************************************** 

               1 N1            2 N2            3 X1    
    1 N1       0.000000
    2 N2       2.078000        0.000000
    3 X1       1.039000        1.039000        0.000000

                    ******************************************* 
                    *    InterNuclear Distances / Angstrom    * 
                    ******************************************* 

               1 N1            2 N2            3 X1    
    1 N1       0.000000
    2 N2       1.099630        0.000000
    3 X1       0.549815        0.549815        0.000000

                    ************************************** 
                    *    Valence Bond Angles / Degree    * 
                    ************************************** 
                          Atom centers                 Phi
                      2 N2       1 N1       3 X1         0.00
                      1 N1       2 N2       3 X1         0.00
                      1 N1       3 X1       2 N2       180.00
--


            Nuclear Potential Energy             23.58036574 au

--- Stop Module: gateway at Sat Aug  8 14:28:50 2020 /rc=_RC_ALL_IS_WELL_ ---
*** files: xmldump
    saved to directory /home/gayverjr/OpenCAP/molcas_tests
--- Module gateway spent 1 second ---

--- Start Module: seward at Sat Aug  8 14:28:50 2020 ---

()()()()()()()()()()()()()()()()()()()()()()()()()()()()()()()()()()()()()()()()()()()()()()()()()()

                                              &SEWARD

                                   only a single process is used
                       available to each process: 20 GB of memory, 16 threads
                                              pid: 514
()()()()()()()()()()()()()()()()()()()()()()()()()()()()()()()()()()()()()()()()()()()()()()()()()()

               SEWARD will generate:
                  Multipole Moment integrals up to order  2
                  Kinetic Energy integrals
                  Nuclear Attraction integrals (point charge)
                  One-Electron Hamiltonian integrals
                  Velocity integrals
                  Orbital angular momentum around ( 0.0000  0.0000  0.0000 )
                  Velocity quadrupole around ( 0.0000  0.0000  0.0000 )
                  Two-Electron Repulsion integrals

                   Integrals are discarded if absolute value <: 0.10E-13
                   Integral cutoff threshold is set to       <: 0.10E-15

            Nuclear Potential Energy             23.58036574 au


      Basis set specifications :
      Symmetry species         a  
      Basis functions           43


  Input file to MOLDEN was generated!

--- Stop Module: seward at Sat Aug  8 14:28:52 2020 /rc=_RC_ALL_IS_WELL_ ---
*** files: ms_spherical.GssOrb ms_spherical.guessorb.h5 ms_spherical.guessorb.molden xmldump
    saved to directory /home/gayverjr/OpenCAP/molcas_tests
--- Module seward spent 2 seconds ---

*** symbolic link created: INPORB -> ms_spherical.GssOrb
--- Start Module: scf at Sat Aug  8 14:28:52 2020 ---

()()()()()()()()()()()()()()()()()()()()()()()()()()()()()()()()()()()()()()()()()()()()()()()()()()

                                                &SCF

                                   only a single process is used
                       available to each process: 20 GB of memory, 16 threads
                                              pid: 553
()()()()()()()()()()()()()()()()()()()()()()()()()()()()()()()()()()()()()()()()()()()()()()()()()()

++    Input section:
      --------------

      Header of the integral files:
      
       Integrals generated by seward 4.2.0  , Sat Aug  8 14:28:50 2020


      Cartesian coordinates in Angstrom:
      -----------------------------------------------------
      No.  Label        X            Y            Z        
      -----------------------------------------------------
       1   N1         0.00000000   0.00000000   0.54981512
       2   N2         0.00000000   0.00000000  -0.54981512
       3   X1         0.00000000   0.00000000   0.00000000
      -----------------------------------------------------
      Nuclear repulsion energy =   23.58036574
--

++    Orbital specifications:
      -----------------------

      Symmetry species               1
                                     a
      Frozen orbitals                0
      Occupied orbitals              7
      Secondary orbitals            36
      Deleted orbitals               0
      Total number of orbitals      43
      Number of basis functions     43
--

      Molecular charge                           0.000

++    Optimization specifications:
      ----------------------------

      SCF Algorithm: Conventional
      Minimized density differences are used
      Number of density matrices in core                5
      Maximum number of NDDO SCF iterations           400
      Maximum number of HF SCF iterations             400
      Threshold for SCF energy change            0.10E-08
      Threshold for density matrix               0.10E-03
      Threshold for Fock matrix                  0.15E-03
      Threshold for linear dependence            0.10E-08
      Threshold at which DIIS is turned on       0.15E+00
      Threshold at which QNR/C2DIIS is turned on 0.75E-01
      Threshold for Norm(delta) (QNR/C2DIIS)     0.20E-04
      DIIS extrapolation of the SCF procedure
      All orbitals punched on: SCFORB
--

      Input vectors read from INPORB
      Orbital file label: *Guess orbitals


++ Convergence information
                                   SCF        iterations: Energy and convergence statistics

Iter     Tot. SCF        One-elec.       Two-elec.     Energy      Max Dij or  Max Fij      DNorm      TNorm      AccCon     Time
         Energy          Energy          Energy        Change      Delta Norm                                                in Sec.
   1  -108.637168818  -192.681033805    60.463499251   0.00E+00    0.18E+00*   0.21E+00*    0.45E+01   0.60E+02   None         0.
   2  -108.806275057  -193.971432812    61.584792018  -0.17E+00*   0.43E-01*   0.22E-01*    0.15E+01   0.61E+02   EDIIS        0.
   3  -108.811167555  -193.709049760    61.317516468  -0.49E-02*   0.12E-01*   0.87E-02*    0.20E+00   0.61E+02   EDIIS        0.
   4  -108.811424463  -193.758683929    61.366893730  -0.26E-03*   0.15E-02*   0.24E-02*    0.27E-01   0.61E+02   c2DIIS       0.
   5  -108.811442686  -193.747163800    61.355355378  -0.18E-04*   0.39E-03*   0.27E-03*    0.35E-02   0.61E+02   QNRc2DIIS    0.
   6  -108.811443165  -193.751814711    61.360005809  -0.48E-06*   0.90E-04*   0.69E-04     0.18E-03   0.61E+02   QNRc2DIIS    0.
   7  -108.811443193  -193.751205665    61.359396735  -0.28E-07*   0.23E-04*   0.15E-04     0.20E-04   0.61E+02   QNRc2DIIS    0.
   8  -108.811443194  -193.751106846    61.359297916  -0.10E-08*   0.34E-06    0.27E-06     0.12E-04   0.61E+02   QNRc2DIIS    0.
   9  -108.811443194  -193.751106457    61.359297527  -0.34E-12    0.31E-07    0.28E-07     0.29E-02   0.61E+02   QNRc2DIIS    0.

       Convergence after  9 Macro Iterations
--

 *****************************************************************************************************************************
 *                                                                                                                           *
 *                                             SCF/KS-DFT Program, Final results                                             *
 *                                                                                                                           *
 *                                                                                                                           *
 *                                                                                                                           *
 *                                                       Final Results                                                       *
 *                                                                                                                           *
 *****************************************************************************************************************************

::    Total SCF energy                               -108.8114431939
      One-electron energy                            -193.7511064575
      Two-electron energy                              61.3592975273
      Nuclear repulsion energy                         23.5803657363
      Kinetic energy (interpolated)                   108.7381692825
      Virial theorem                                    1.0006738564
      Total spin, S(S+1)                                0.0000000000
      Total spin, S                                     0.0000000000
      Max non-diagonal density matrix element           0.0000000506
      Max non-diagonal Fock matrix element              0.0000000091


      All orbitals with orbital energies smaller than  E(LUMO)+0.5 are printed

++    Molecular orbitals:
      -------------------

      Title: SCF orbitals

      Molecular orbitals for symmetry species 1: a  

          Orbital            1         2         3         4         5         6         7         8         9        10    
          Energy          -15.7116  -15.7082   -1.4954   -0.7697   -0.6170   -0.6072   -0.6072    0.1731    0.1731    0.4271
          Occ. No.          2.0000    2.0000    2.0000    2.0000    2.0000    2.0000    2.0000    0.0000    0.0000    0.0000

        1 N1     1s         0.7035   -0.7038   -0.1712    0.1642    0.0643    0.0000   -0.0000   -0.0000    0.0000   -0.0602
        2 N1     1s         0.0154   -0.0145    0.2027   -0.1763   -0.0447   -0.0000   -0.0000    0.0000   -0.0000    0.0642
        3 N1     1s        -0.0004    0.0017    0.3032   -0.7033   -0.4149    0.0000   -0.0000    0.0000    0.0000   -0.5020
        4 N1     2px       -0.0000   -0.0000    0.0000    0.0000    0.0000    0.0088   -0.3656   -0.0418    0.3662   -0.0000
        5 N1     2px       -0.0000   -0.0000    0.0000    0.0000    0.0000    0.0085   -0.3516   -0.0216    0.1893    0.0000
        6 N1     2py       -0.0000   -0.0000    0.0000   -0.0000    0.0000    0.3656    0.0088    0.3662    0.0418   -0.0000
        7 N1     2py       -0.0000   -0.0000    0.0000   -0.0000    0.0000    0.3516    0.0085    0.1893    0.0216    0.0000
        8 N1     2pz       -0.0023    0.0019   -0.2035   -0.1638   -0.3921    0.0000   -0.0000    0.0000   -0.0000    0.0163
        9 N1     2pz        0.0019   -0.0008   -0.1159   -0.0621   -0.3474    0.0000   -0.0000   -0.0000   -0.0000   -0.6746
       10 N2     1s         0.7035    0.7038   -0.1712   -0.1642    0.0643    0.0000   -0.0000    0.0000    0.0000   -0.0602
       11 N2     1s         0.0154    0.0145    0.2027    0.1763   -0.0447    0.0000    0.0000    0.0000   -0.0000    0.0642
       12 N2     1s        -0.0004   -0.0017    0.3032    0.7033   -0.4149    0.0000   -0.0000   -0.0000   -0.0000   -0.5020
       13 N2     2px       -0.0000   -0.0000    0.0000    0.0000    0.0000    0.0088   -0.3656    0.0418   -0.3662   -0.0000
       14 N2     2px       -0.0000   -0.0000    0.0000    0.0000    0.0000    0.0085   -0.3516    0.0216   -0.1893   -0.0000
       15 N2     2py       -0.0000   -0.0000    0.0000   -0.0000    0.0000    0.3656    0.0088   -0.3662   -0.0418   -0.0000
       16 N2     2py       -0.0000   -0.0000    0.0000   -0.0000    0.0000    0.3516    0.0085   -0.1893   -0.0216   -0.0000
       17 N2     2pz        0.0023    0.0019    0.2035   -0.1638    0.3921   -0.0000    0.0000   -0.0000    0.0000   -0.0163
       18 N2     2pz       -0.0019   -0.0008    0.1159   -0.0621    0.3474   -0.0000    0.0000   -0.0000   -0.0000    0.6746
       19 X1     1s         0.0003   -0.0000    0.0044    0.0000    0.0028   -0.0000    0.0000   -0.0000   -0.0000    0.0029
       20 X1     2px       -0.0000   -0.0000    0.0000    0.0000    0.0000    0.0002   -0.0090   -0.0000    0.0000   -0.0000
       21 X1     2py       -0.0000   -0.0000    0.0000   -0.0000    0.0000    0.0090    0.0002   -0.0000    0.0000    0.0000
       22 X1     2pz       -0.0000   -0.0002    0.0000    0.0071   -0.0000    0.0000    0.0000   -0.0000   -0.0000   -0.0000
       23 X1     3d2-       0.0000    0.0000    0.0000    0.0000   -0.0000   -0.0000    0.0000    0.0000    0.0000   -0.0000
       24 X1     3d1-      -0.0000    0.0000    0.0000   -0.0000   -0.0000    0.0000    0.0000    0.5107    0.0583   -0.0000
       25 X1     3d0       -0.0016    0.0000    0.0694    0.0000    0.1054   -0.0000    0.0000    0.0000    0.0000    1.5300
       26 X1     3d1+      -0.0000    0.0000    0.0000   -0.0000   -0.0000    0.0000   -0.0000   -0.0583    0.5107   -0.0000
       27 X1     3d2+      -0.0000    0.0000   -0.0000    0.0000    0.0000   -0.0000   -0.0000    0.0000   -0.0000    0.0000
       28 X1     4f3-       0.0000   -0.0000   -0.0000    0.0000   -0.0000   -0.0000   -0.0000    0.0000   -0.0000    0.0000
       29 X1     4f2-      -0.0000   -0.0000   -0.0000   -0.0000    0.0000   -0.0000    0.0000   -0.0000    0.0000    0.0000
       30 X1     4f1-       0.0000    0.0000   -0.0000    0.0000   -0.0000   -0.0627   -0.0015   -0.0000   -0.0000   -0.0000
       31 X1     4f0       -0.0000   -0.0007    0.0000   -0.0154   -0.0000   -0.0000   -0.0000    0.0000   -0.0000   -0.0000
       32 X1     4f1+       0.0000    0.0000   -0.0000   -0.0000   -0.0000   -0.0015    0.0627    0.0000   -0.0000   -0.0000
       33 X1     4f2+      -0.0000    0.0000   -0.0000   -0.0000    0.0000    0.0000    0.0000   -0.0000    0.0000   -0.0000
       34 X1     4f3+       0.0000    0.0000    0.0000   -0.0000    0.0000    0.0000   -0.0000   -0.0000    0.0000   -0.0000
       35 X1     5g4-      -0.0000   -0.0000   -0.0000    0.0000   -0.0000    0.0000    0.0000    0.0000   -0.0000   -0.0000
       36 X1     5g3-       0.0000   -0.0000   -0.0000    0.0000   -0.0000    0.0000    0.0000   -0.0000    0.0000   -0.0000
       37 X1     5g2-       0.0000    0.0000    0.0000    0.0000   -0.0000   -0.0000    0.0000    0.0000    0.0000    0.0000
       38 X1     5g1-      -0.0000   -0.0000    0.0000    0.0000    0.0000   -0.0000   -0.0000   -0.0003   -0.0000    0.0000
       39 X1     5g0        0.0004   -0.0000   -0.0005    0.0000   -0.0033   -0.0000    0.0000   -0.0000   -0.0000    0.0008
       40 X1     5g1+      -0.0000   -0.0000    0.0000    0.0000   -0.0000   -0.0000    0.0000    0.0000   -0.0003   -0.0000
       41 X1     5g2+       0.0000   -0.0000    0.0000    0.0000   -0.0000   -0.0000   -0.0000    0.0000   -0.0000    0.0000
       42 X1     5g3+       0.0000    0.0000    0.0000   -0.0000    0.0000   -0.0000    0.0000    0.0000    0.0000   -0.0000
       43 X1     5g4+       0.0000   -0.0000    0.0000    0.0000    0.0000   -0.0000    0.0000   -0.0000   -0.0000   -0.0000

          Orbital           11        12        13        14    
          Energy            0.5205    0.5205    0.6685    0.6685
          Occ. No.          0.0000    0.0000    0.0000    0.0000

        1 N1     1s         0.0000   -0.0000   -0.0000   -0.0000
        2 N1     1s        -0.0000   -0.0000   -0.0000   -0.0000
        3 N1     1s         0.0000    0.0000    0.0000    0.0000
        4 N1     2px       -0.0000    0.0000    0.0125   -0.2430
        5 N1     2px       -0.0000   -0.0000    0.1175   -2.2807
        6 N1     2py       -0.0000   -0.0000   -0.2430   -0.0125
        7 N1     2py       -0.0000   -0.0000   -2.2807   -0.1175
        8 N1     2pz       -0.0000   -0.0000   -0.0000    0.0000
        9 N1     2pz       -0.0000   -0.0000   -0.0000   -0.0000
       10 N2     1s         0.0000    0.0000    0.0000    0.0000
       11 N2     1s        -0.0000    0.0000    0.0000    0.0000
       12 N2     1s        -0.0000   -0.0000   -0.0000   -0.0000
       13 N2     2px       -0.0000   -0.0000   -0.0125    0.2430
       14 N2     2px        0.0000    0.0000   -0.1175    2.2807
       15 N2     2py       -0.0000    0.0000    0.2430    0.0125
       16 N2     2py        0.0000    0.0000    2.2807    0.1175
       17 N2     2pz       -0.0000   -0.0000   -0.0000   -0.0000
       18 N2     2pz       -0.0000   -0.0000   -0.0000   -0.0000
       19 X1     1s         0.0000    0.0000    0.0000    0.0000
       20 X1     2px       -0.0000    0.0000    0.0000   -0.0000
       21 X1     2py        0.0000   -0.0000   -0.0000   -0.0000
       22 X1     2pz        0.0000   -0.0000   -0.0000    0.0000
       23 X1     3d2-      -0.0000    1.0000   -0.0000   -0.0000
       24 X1     3d1-       0.0000    0.0000    2.6280    0.1354
       25 X1     3d0       -0.0000    0.0000    0.0000    0.0000
       26 X1     3d1+       0.0000    0.0000   -0.1354    2.6280
       27 X1     3d2+       1.0000    0.0000   -0.0000   -0.0000
       28 X1     4f3-       0.0000   -0.0000   -0.0000   -0.0000
       29 X1     4f2-       0.0000   -0.0000   -0.0000   -0.0000
       30 X1     4f1-       0.0000   -0.0000    0.0000    0.0000
       31 X1     4f0        0.0000    0.0000    0.0000    0.0000
       32 X1     4f1+      -0.0000    0.0000    0.0000   -0.0000
       33 X1     4f2+      -0.0000   -0.0000    0.0000   -0.0000
       34 X1     4f3+       0.0000   -0.0000    0.0000    0.0000
       35 X1     5g4-       0.0000   -0.0000    0.0000    0.0000
       36 X1     5g3-       0.0000   -0.0000    0.0000    0.0000
       37 X1     5g2-      -0.0000    0.0004   -0.0000    0.0000
       38 X1     5g1-      -0.0000    0.0000   -0.0004   -0.0000
       39 X1     5g0       -0.0000   -0.0000    0.0000    0.0000
       40 X1     5g1+      -0.0000    0.0000    0.0000   -0.0004
       41 X1     5g2+       0.0004    0.0000    0.0000    0.0000
       42 X1     5g3+      -0.0000   -0.0000   -0.0000   -0.0000
       43 X1     5g4+      -0.0000    0.0000    0.0000    0.0000
--


++    Molecular charges:
      ------------------

      Mulliken charges per centre and basis function type
      ---------------------------------------------------

                N1      N2      X1    
      1s       3.8446  3.8446  0.0041
      2px      1.0132  1.0132  0.0036
      2pz      1.2050  1.2050 -0.0005
      2py      1.0132  1.0132  0.0036
      3d2+     0.0000  0.0000  0.0000
      3d1+     0.0000  0.0000 -0.0000
      3d0      0.0000  0.0000 -0.1087
      3d1-     0.0000  0.0000  0.0000
      3d2-     0.0000  0.0000  0.0000
      4f3+     0.0000  0.0000  0.0000
      4f2+     0.0000  0.0000  0.0000
      4f1+     0.0000  0.0000 -0.0300
      4f0      0.0000  0.0000  0.0060
      4f1-     0.0000  0.0000 -0.0300
      4f2-     0.0000  0.0000  0.0000
      4f3-     0.0000  0.0000  0.0000
      5g4+     0.0000  0.0000  0.0000
      5g3+     0.0000  0.0000  0.0000
      5g2+     0.0000  0.0000  0.0000
      5g1+     0.0000  0.0000  0.0000
      5g0      0.0000  0.0000 -0.0000
      5g1-     0.0000  0.0000  0.0000
      5g2-     0.0000  0.0000  0.0000
      5g3-     0.0000  0.0000  0.0000
      5g4-     0.0000  0.0000  0.0000
      Total    7.0760  7.0760 -0.1519

      N-E     -0.0760 -0.0760  0.1519

      Total electronic charge=   14.000000

      Total            charge=   -0.000000
--


++    Molecular properties:
      ---------------------

      Charge (e):
                      =   -0.0000
      Dipole Moment (Debye):
      Origin of the operator (Ang)=    0.0000    0.0000    0.0000
                   X= -9.0199E-18               Y= -8.9263E-18               Z=  1.7496E-13           Total=  1.7496E-13
      Quadrupole Moment (Debye*Ang):
      Origin of the operator (Ang)=    0.0000    0.0000    0.0000
                  XX= -1.0232E+01              XY= -1.1920E-16              XZ= -5.8054E-18              YY= -1.0232E+01
                  YZ= -5.3372E-18              ZZ= -1.1318E+01
      In traceless form (Debye*Ang)
                  XX=  5.4293E-01              XY= -1.7880E-16              XZ= -8.7081E-18              YY=  5.4293E-01
                  YZ= -8.0057E-18              ZZ= -1.0859E+00
--


  Input file to MOLDEN was generated!

 ###############################################################################
 ###############################################################################
 ###                                                                         ###
 ###                                                                         ###
 ###    WARNING: RunFile label nBas                                          ###
 ###    was used       71 times                                              ###
 ###                                                                         ###
 ###                                                                         ###
 ###############################################################################
 ###############################################################################
--- Stop Module: scf at Sat Aug  8 14:28:52 2020 /rc=_RC_ALL_IS_WELL_ ---
*** files: ms_spherical.scf.molden ms_spherical.ScfOrb ms_spherical.scf.h5 xmldump
    saved to directory /home/gayverjr/OpenCAP/molcas_tests

*** symbolic link created: INPORB -> ms_spherical.ScfOrb
--- Start Module: rasscf at Sat Aug  8 14:28:53 2020 ---

()()()()()()()()()()()()()()()()()()()()()()()()()()()()()()()()()()()()()()()()()()()()()()()()()()

                                              &RASSCF

                                   only a single process is used
                       available to each process: 20 GB of memory, 16 threads
                                              pid: 592
()()()()()()()()()()()()()()()()()()()()()()()()()()()()()()()()()()()()()()()()()()()()()()()()()()


      Header of the ONEINT file:
      --------------------------
      
      Integrals generated by seward 4.2.0  , Sat Aug  8 14:28:50 2020


      OrdInt status: non-squared


      Cartesian coordinates in Angstrom:
      -----------------------------------------------------
      No.  Label        X            Y            Z        
      -----------------------------------------------------
       1   N1         0.00000000   0.00000000   0.54981512
       2   N2         0.00000000   0.00000000  -0.54981512
       3   X1         0.00000000   0.00000000   0.00000000
      -----------------------------------------------------
      Nuclear repulsion energy =   23.58036574

++    Wave function specifications:
      -----------------------------

      Number of closed shell electrons          12
      Number of electrons in active shells       2
      Max number of holes in RAS1 space          0
      Max nr of electrons in RAS3 space          0
      Number of inactive orbitals                6
      Number of active orbitals                  8
      Number of secondary orbitals              29
      Spin quantum number                      0.0
      State symmetry                             1
--

++    Orbital specifications:
      -----------------------

      Symmetry species                           1
                                                 a
      Frozen orbitals                            0
      Inactive orbitals                          6
      Active orbitals                            8
      RAS1 orbitals                              0
      RAS2 orbitals                              8
      RAS3 orbitals                              0
      Secondary orbitals                        29
      Deleted orbitals                           0
      Number of basis functions                 43
--

++    CI expansion specifications:
      ----------------------------

      Number of CSFs                            36
      Number of determinants                    36
      Number of root(s) required                16
      Root chosen for geometry opt.             16
      CI roots used                              1     2     3     4     5     6     7     8     9    10
                                                11    12    13    14    15    16
      weights                                0.062 0.062 0.062 0.062 0.062 0.062 0.062 0.062 0.062 0.062
                                             0.062 0.062 0.062 0.062 0.062 0.062
      highest root included in the CI           16
      max. size of the explicit Hamiltonian     36
--

++    Optimization specifications:
      ----------------------------

      RASSCF algorithm: Conventional
      Maximum number of macro iterations       200
      Maximum number of SX iterations          100
      Threshold for RASSCF energy            0.100E-07
      Threshold for max MO rotation          0.100E+00
      Threshold for max BLB element          0.100E-03
      Level shift parameter                  0.500E+00
      Make Quasi-Newton update
--

      Orbitals from runfile: scf orbitals
      The MO-coefficients are taken from scf orbitals on runfile

      Total molecular charge    0.00

      ************************************************************************************************************************
      *                                                                                                                      *
      *                                            Wave function control section                                             *
      *                                                                                                                      *
      ************************************************************************************************************************


                                         RASSCF iterations: Energy and convergence statistics
                                         ----------------------------------------------------

      Iter CI   SX   CI       RASSCF       Energy    max ROT     max BLB   max BLB  Level Ln srch  Step   QN   Walltime
          iter iter root      energy       change     param      element    value   shift minimum  type update hh:mm:ss
 Nr of preliminary CI iterations:   1
        1   1    8    0  -107.97578755    0.00E+00  -0.60E-01    5  21 1  0.97E-01*  0.25   0.00    SX    NO    0:00:00
        2   1    8    0  -107.98952540   -0.14E-01* -0.73E-02    4  30 1 -0.11E-01*  0.25   0.00    SX    NO    0:00:00
        3   1    8    0  -107.98978462   -0.26E-03*  0.28E-02    4  15 1 -0.50E-02*  0.25   0.00    SX    NO    0:00:00
        4   1    7    0  -107.98980825   -0.24E-04* -0.95E-03    6  22 1 -0.21E-02*  0.25   0.00    SX    NO    0:00:00
        5   1    6    0  -107.98981209   -0.38E-05* -0.42E-03    6  22 1 -0.56E-03*  0.25   1.44    LS   YES    0:00:00
        6   1    6    0  -107.98981249   -0.40E-06*  0.14E-03    3  29 1  0.15E-03*  0.25   1.00    QN   YES    0:00:00
        7   1    5    0  -107.98981253   -0.44E-07* -0.59E-04    6  22 1  0.55E-04   0.25   1.16    QN   YES    0:00:00
        8   1    4    0  -107.98981253   -0.32E-08  -0.99E-05    6  23 1  0.63E-05   0.25   1.12    QN   YES    0:00:00
      Convergence after  8 iterations
        9   1    4    0  -107.98981253   -0.68E-10  -0.99E-05    6  23 1  0.19E-05   0.25   1.12    QN   YES    0:00:00

      ************************************************************************************************************************
                                                      Wave function printout:
                       occupation of active orbitals, and spin coupling of open shells (u,d: Spin up or down)
      ************************************************************************************************************************

      Note: transformation to natural orbitals
      has been made, which may change the order of the CSFs.

      printout of CI-coefficients larger than  0.05 for root  1
      energy=    -108.832225
      conf/sym  11111111     Coeff  Weight
             1  20000000  -0.98355 0.96737
             6  00200000   0.17086 0.02919
            22  00u0000d  -0.05019 0.00252

      printout of CI-coefficients larger than  0.05 for root  2
      energy=    -108.478750
      conf/sym  11111111     Coeff  Weight
             2  ud000000   0.99829 0.99658
            13  u00000d0   0.05851 0.00342

      printout of CI-coefficients larger than  0.05 for root  3
      energy=    -108.255788
      conf/sym  11111111     Coeff  Weight
             4  u0d00000   0.97746 0.95544
            14  u000000d   0.21110 0.04456

      printout of CI-coefficients larger than  0.05 for root  4
      energy=    -108.105186
      conf/sym  11111111     Coeff  Weight
             7  u00d0000   0.98179 0.96392
            11  u000d000   0.18996 0.03608

      printout of CI-coefficients larger than  0.05 for root  5
      energy=    -108.091538
      conf/sym  11111111     Coeff  Weight
             3  02000000   0.98629 0.97278
             6  00200000  -0.13463 0.01813
            17  0u0000d0   0.08835 0.00781

      printout of CI-coefficients larger than  0.05 for root  6
      energy=    -108.045237
      conf/sym  11111111     Coeff  Weight
             5  0ud00000   0.99716 0.99433
            18  0u00000d   0.05054 0.00255

      printout of CI-coefficients larger than  0.05 for root  7
      energy=    -108.004836
      conf/sym  11111111     Coeff  Weight
            12  u0000d00   1.00000 1.00000

      printout of CI-coefficients larger than  0.05 for root  8
      energy=    -108.000993
      conf/sym  11111111     Coeff  Weight
             7  u00d0000  -0.18996 0.03608
            11  u000d000   0.98179 0.96392

      printout of CI-coefficients larger than  0.05 for root  9
      energy=    -107.935660
      conf/sym  11111111     Coeff  Weight
             1  20000000   0.16460 0.02709
             3  02000000   0.13081 0.01711
             6  00200000   0.97104 0.94292
            22  00u0000d   0.09487 0.00900

      printout of CI-coefficients larger than  0.05 for root 10
      energy=    -107.873159
      conf/sym  11111111     Coeff  Weight
             2  ud000000  -0.05851 0.00342
            13  u00000d0   0.99829 0.99658

      printout of CI-coefficients larger than  0.05 for root 11
      energy=    -107.819446
      conf/sym  11111111     Coeff  Weight
             4  u0d00000  -0.21110 0.04456
            14  u000000d   0.97746 0.95544

      printout of CI-coefficients larger than  0.05 for root 12
      energy=    -107.771473
      conf/sym  11111111     Coeff  Weight
             8  0u0d0000   0.97406 0.94879
            15  0u00d000  -0.21039 0.04427
            20  00u00d00   0.06859 0.00470

      printout of CI-coefficients larger than  0.05 for root 13
      energy=    -107.696507
      conf/sym  11111111     Coeff  Weight
             9  00ud0000   0.91522 0.83763
            16  0u000d00   0.39640 0.15714
            26  000u000d  -0.06717 0.00451

      printout of CI-coefficients larger than  0.05 for root 14
      energy=    -107.665979
      conf/sym  11111111     Coeff  Weight
             9  00ud0000  -0.39519 0.15617
            16  0u000d00   0.91478 0.83683
            31  00000ud0  -0.05729 0.00328

      printout of CI-coefficients larger than  0.05 for root 15
      energy=    -107.663694
      conf/sym  11111111     Coeff  Weight
             8  0u0d0000   0.21061 0.04436
            15  0u00d000   0.97555 0.95171
            30  0000u0d0  -0.05885 0.00346

      printout of CI-coefficients larger than  0.05 for root 16
      energy=    -107.596528
      conf/sym  11111111     Coeff  Weight
             8  0u0d0000  -0.06390 0.00408
            20  00u00d00   0.99408 0.98819
            34  00000u0d  -0.08318 0.00692

      Natural orbitals and occupation numbers for root  1
      sym 1:   1.934741   0.000468   0.063647   0.000010   0.000809   0.000298   0.000000   0.000026

      Natural orbitals and occupation numbers for root  2
      sym 1:   1.000000   1.000000  -0.000000   0.000000   0.000000   0.000000   0.000000   0.000000

      Natural orbitals and occupation numbers for root  3
      sym 1:   1.000000  -0.000000   1.000000   0.000000   0.000000   0.000000   0.000000  -0.000000

      Natural orbitals and occupation numbers for root  4
      sym 1:   1.000000   0.000000   0.000000   1.000000   0.000000   0.000000   0.000000   0.000000

      Natural orbitals and occupation numbers for root  5
      sym 1:   0.000161   1.960631   0.036263   0.000007   0.000107   0.000083   0.002743   0.000005

      Natural orbitals and occupation numbers for root  6
      sym 1:   0.000000   0.998707   0.998706   0.000019   0.000000   0.000019   0.001275   0.001275

      Natural orbitals and occupation numbers for root  7
      sym 1:   1.000000   0.000000   0.000000  -0.000000  -0.000000   1.000000  -0.000000   0.000000

      Natural orbitals and occupation numbers for root  8
      sym 1:   1.000000   0.000000   0.000000  -0.000000   1.000000   0.000000   0.000000   0.000000

      Natural orbitals and occupation numbers for root  9
      sym 1:   0.054183   0.035725   1.902963   0.000061   0.000748   0.000479   0.000305   0.005535

      Natural orbitals and occupation numbers for root 10
      sym 1:   1.000000  -0.000000  -0.000000   0.000000   0.000000   0.000000   1.000000  -0.000000

      Natural orbitals and occupation numbers for root 11
      sym 1:   1.000000  -0.000000   0.000000   0.000000   0.000000   0.000000  -0.000000   1.000000

      Natural orbitals and occupation numbers for root 12
      sym 1:   0.000000   0.995234   0.004718   0.995234   0.000048   0.004718   0.000048  -0.000000

      Natural orbitals and occupation numbers for root 13
      sym 1:   0.000000   0.157291   0.842582   0.842582   0.000127   0.157291   0.000000   0.000127

      Natural orbitals and occupation numbers for root 14
      sym 1:   0.000000   0.840111   0.159889   0.159889   0.000000   0.840111   0.000000   0.000000

      Natural orbitals and occupation numbers for root 15
      sym 1:   0.000000   0.999867   0.000087   0.000046   0.999867   0.000087   0.000046   0.000000

      Natural orbitals and occupation numbers for root 16
      sym 1:   0.000000   0.004888   0.995112   0.004888   0.000000   0.995112   0.000000  -0.000000

      ************************************************************************************************************************
      *                                                                                                                      *
      *                                                    Final results                                                     *
      *                                                                                                                      *
      ************************************************************************************************************************


++    Wave function specifications:
      -----------------------------

      Number of closed shell electrons          12
      Number of electrons in active shells       2
      Max number of holes in RAS1 space          0
      Max nr of electrons in RAS3 space          0
      Number of inactive orbitals                6
      Number of active orbitals                  8
      Number of secondary orbitals              29
      Spin quantum number                      0.0
      State symmetry                             1
--

++    Orbital specifications:
      -----------------------

      Symmetry species                           1
                                                 a
      Frozen orbitals                            0
      Inactive orbitals                          6
      Active orbitals                            8
      RAS1 orbitals                              0
      RAS2 orbitals                              8
      RAS3 orbitals                              0
      Secondary orbitals                        29
      Deleted orbitals                           0
      Number of basis functions                 43
--

++    CI expansion specifications:
      ----------------------------

      Number of CSFs                            36
      Number of determinants                    36
      Number of root(s) required                16
      CI roots used                              1     2     3     4     5     6     7     8     9    10
                                                11    12    13    14    15    16
      weights                                0.062 0.062 0.062 0.062 0.062 0.062 0.062 0.062 0.062 0.062
                                             0.062 0.062 0.062 0.062 0.062 0.062
      highest root included in the CI           16
      Root passed to geometry opt.              16
--

++    Final optimization conditions:
      ------------------------------

      Average CI energy                            -107.98981253
      RASSCF energy for state 16                   -107.59652828
      Super-CI energy                                -0.00000000
      RASSCF energy change                           -0.00000000
      Max change in MO coefficients              -0.124E-04
      Max non-diagonal density matrix element    -0.989E-05
      Maximum BLB matrix element                  0.190E-05
      (orbital pair   6,  23 in symmetry   1)
      Norm of electronic gradient            0.118E+00
--


      Final state energy(ies):
      ------------------------

::    RASSCF root number  1 Total energy:   -108.83222458
::    RASSCF root number  2 Total energy:   -108.47875023
::    RASSCF root number  3 Total energy:   -108.25578802
::    RASSCF root number  4 Total energy:   -108.10518597
::    RASSCF root number  5 Total energy:   -108.09153837
::    RASSCF root number  6 Total energy:   -108.04523736
::    RASSCF root number  7 Total energy:   -108.00483636
::    RASSCF root number  8 Total energy:   -108.00099298
::    RASSCF root number  9 Total energy:   -107.93565987
::    RASSCF root number 10 Total energy:   -107.87315948
::    RASSCF root number 11 Total energy:   -107.81944582
::    RASSCF root number 12 Total energy:   -107.77147290
::    RASSCF root number 13 Total energy:   -107.69650714
::    RASSCF root number 14 Total energy:   -107.66597939
::    RASSCF root number 15 Total energy:   -107.66369381
::    RASSCF root number 16 Total energy:   -107.59652828

++    Molecular orbitals:
      -------------------

      Pseudonatural active orbitals and approximate occupation numbers




      Molecular orbitals for symmetry species 1: a  


      Orbital                 1         2         3         4         5         6         7         8         9        10
      Energy           -15.8275  -15.8245   -1.6071   -0.8482   -0.7171   -0.6928    0.0000    0.0000    0.0000    0.0000
      Occ. No.           2.0000    2.0000    2.0000    2.0000    2.0000    2.0000    0.5618    0.4358    0.3736    0.1875

     1 N1     1s         0.7035   -0.7037   -0.1692    0.1688    0.0000    0.0716   -0.0000    0.0000   -0.0000   -0.0575
     2 N1     1s         0.0156   -0.0143    0.2123   -0.1840   -0.0000   -0.0558    0.0000   -0.0000    0.0000    0.0921
     3 N1     1s        -0.0005    0.0005    0.2776   -0.7783    0.0000   -0.4178   -0.0000    0.0000   -0.0000   -0.5128
     4 N1     2px       -0.0000   -0.0000    0.0000    0.0000    0.0093    0.0000   -0.3797    0.0109    0.4178   -0.0000
     5 N1     2px       -0.0000   -0.0000    0.0000    0.0000    0.0081    0.0000   -0.3411    0.0114    0.4352    0.0000
     6 N1     2py       -0.0000   -0.0000    0.0000   -0.0000    0.3870    0.0000    0.0092    0.4515   -0.0101   -0.0000
     7 N1     2py       -0.0000   -0.0000    0.0000   -0.0000    0.3341    0.0000    0.0082    0.4708   -0.0105   -0.0000
     8 N1     2pz       -0.0028    0.0026   -0.2221   -0.1581    0.0000   -0.3970   -0.0000    0.0000    0.0000    0.0118
     9 N1     2pz        0.0024   -0.0003   -0.1261   -0.0004    0.0000   -0.3230   -0.0000    0.0000   -0.0000   -0.6388
    10 N2     1s         0.7035    0.7037   -0.1692   -0.1688    0.0000    0.0716   -0.0000    0.0000   -0.0000   -0.0575
    11 N2     1s         0.0156    0.0143    0.2123    0.1840    0.0000   -0.0558    0.0000   -0.0000    0.0000    0.0921
    12 N2     1s        -0.0005   -0.0005    0.2776    0.7783    0.0000   -0.4178   -0.0000    0.0000   -0.0000   -0.5128
    13 N2     2px       -0.0000   -0.0000    0.0000    0.0000    0.0093    0.0000   -0.3797   -0.0109   -0.4178    0.0000
    14 N2     2px       -0.0000   -0.0000    0.0000    0.0000    0.0081    0.0000   -0.3411   -0.0114   -0.4352   -0.0000
    15 N2     2py       -0.0000   -0.0000    0.0000   -0.0000    0.3870    0.0000    0.0092   -0.4515    0.0101    0.0000
    16 N2     2py       -0.0000   -0.0000    0.0000    0.0000    0.3341    0.0000    0.0082   -0.4708    0.0105    0.0000
    17 N2     2pz        0.0028    0.0026    0.2221   -0.1581   -0.0000    0.3970    0.0000   -0.0000   -0.0000   -0.0118
    18 N2     2pz       -0.0024   -0.0003    0.1261   -0.0004   -0.0000    0.3230    0.0000   -0.0000    0.0000    0.6388
    19 X1     1s         0.0003    0.0000    0.0052   -0.0000   -0.0000    0.0032    0.0000   -0.0000   -0.0000    0.0034
    20 X1     2px       -0.0000   -0.0000    0.0000    0.0000    0.0002    0.0000   -0.0100   -0.0000    0.0000   -0.0000
    21 X1     2py       -0.0000   -0.0000    0.0000   -0.0000    0.0101    0.0000    0.0002   -0.0000   -0.0000    0.0000
    22 X1     2pz       -0.0000   -0.0002    0.0000    0.0079    0.0000   -0.0000    0.0000   -0.0000   -0.0000   -0.0000
    23 X1     3d2-       0.0000   -0.0000    0.0002    0.0000    0.0000   -0.0000   -0.0000    0.0000   -0.0000    0.0011
    24 X1     3d1-      -0.0000   -0.0000   -0.0000    0.0000    0.0000   -0.0000    0.0000    0.1009   -0.0046    0.0000
    25 X1     3d0       -0.0018   -0.0000    0.0835    0.0000   -0.0000    0.0986    0.0000   -0.0000    0.0000    1.4945
    26 X1     3d1+       0.0000   -0.0000   -0.0000    0.0000   -0.0000    0.0000   -0.0000    0.0024    0.1915   -0.0000
    27 X1     3d2+      -0.0002   -0.0000   -0.0035   -0.0000   -0.0000    0.0006   -0.0000   -0.0000   -0.0000   -0.0384
    28 X1     4f3-      -0.0000    0.0000    0.0000   -0.0000    0.0059   -0.0000    0.0004   -0.0000   -0.0000    0.0000
    29 X1     4f2-      -0.0000   -0.0000    0.0000    0.0002    0.0000    0.0000   -0.0000   -0.0000    0.0000   -0.0000
    30 X1     4f1-       0.0000    0.0000   -0.0000    0.0000   -0.0616   -0.0000   -0.0016   -0.0000    0.0000   -0.0000
    31 X1     4f0       -0.0000   -0.0011    0.0000   -0.0234   -0.0000   -0.0000   -0.0000   -0.0000   -0.0000   -0.0000
    32 X1     4f1+       0.0000    0.0000   -0.0000   -0.0000   -0.0015   -0.0000    0.0684   -0.0000    0.0000   -0.0000
    33 X1     4f2+       0.0000    0.0001   -0.0000   -0.0033   -0.0000   -0.0000    0.0000   -0.0000    0.0000   -0.0000
    34 X1     4f3+       0.0000    0.0000   -0.0000   -0.0000    0.0004    0.0000   -0.0059    0.0000    0.0000   -0.0000
    35 X1     5g4-       0.0000   -0.0000   -0.0000    0.0000    0.0000   -0.0000   -0.0000    0.0000   -0.0000    0.0000
    36 X1     5g3-      -0.0000   -0.0000   -0.0000    0.0000    0.0000   -0.0000   -0.0000    0.0000   -0.0000   -0.0000
    37 X1     5g2-      -0.0000    0.0000    0.0000    0.0000   -0.0000   -0.0000   -0.0000    0.0000    0.0000   -0.0000
    38 X1     5g1-      -0.0000   -0.0000    0.0000    0.0000   -0.0000    0.0000    0.0000   -0.0003    0.0000    0.0000
    39 X1     5g0        0.0005    0.0000   -0.0005   -0.0000   -0.0000   -0.0034    0.0000   -0.0000   -0.0000    0.0011
    40 X1     5g1+       0.0000   -0.0000    0.0000    0.0000    0.0000    0.0000    0.0000   -0.0000   -0.0003   -0.0000
    41 X1     5g2+       0.0000   -0.0000   -0.0000    0.0000   -0.0000    0.0000   -0.0000   -0.0000   -0.0000   -0.0000
    42 X1     5g3+      -0.0000    0.0000   -0.0000    0.0000   -0.0000   -0.0000   -0.0000    0.0000    0.0000   -0.0000
    43 X1     5g4+      -0.0000   -0.0000    0.0000    0.0000   -0.0000    0.0000    0.0000   -0.0000   -0.0000   -0.0000


      Orbital                11        12        13        14
      Energy             0.0000    0.0000    0.0000    0.0000
      Occ. No.           0.1252    0.1874    0.0640    0.0646

     1 N1     1s        -0.0019   -0.0000    0.0000   -0.0000
     2 N1     1s         0.0055    0.0001   -0.0000    0.0000
     3 N1     1s        -0.0135   -0.0004    0.0000   -0.0000
     4 N1     2px        0.0000   -0.0000   -0.0052   -0.2167
     5 N1     2px        0.0000   -0.0000   -0.0478   -2.1182
     6 N1     2py       -0.0000   -0.0000   -0.2154    0.0052
     7 N1     2py       -0.0000   -0.0000   -1.9840    0.0511
     8 N1     2pz       -0.0083    0.0000    0.0000   -0.0000
     9 N1     2pz       -0.0090   -0.0005    0.0000   -0.0000
    10 N2     1s        -0.0019   -0.0000    0.0000   -0.0000
    11 N2     1s         0.0055    0.0001   -0.0000    0.0000
    12 N2     1s        -0.0135   -0.0004    0.0000   -0.0000
    13 N2     2px       -0.0000    0.0000    0.0052    0.2167
    14 N2     2px       -0.0000    0.0000    0.0478    2.1182
    15 N2     2py        0.0000    0.0000    0.2154   -0.0052
    16 N2     2py        0.0000    0.0000    1.9840   -0.0511
    17 N2     2pz        0.0083   -0.0000   -0.0000    0.0000
    18 N2     2pz        0.0090    0.0005   -0.0000    0.0000
    19 X1     1s         0.0005    0.0000   -0.0000    0.0000
    20 X1     2px       -0.0000   -0.0000    0.0000    0.0000
    21 X1     2py        0.0000   -0.0000    0.0000    0.0000
    22 X1     2pz       -0.0000    0.0000    0.0000    0.0000
    23 X1     3d2-      -0.0475    0.9989   -0.0000   -0.0000
    24 X1     3d1-       0.0000    0.0000    2.5255   -0.0625
    25 X1     3d0        0.0485    0.0011   -0.0000    0.0000
    26 X1     3d1+      -0.0000    0.0000    0.0609    2.5942
    27 X1     3d2+       0.9981    0.0475   -0.0000    0.0000
    28 X1     4f3-       0.0000    0.0000   -0.0000    0.0000
    29 X1     4f2-      -0.0000   -0.0000   -0.0000   -0.0000
    30 X1     4f1-       0.0000   -0.0000    0.0000   -0.0000
    31 X1     4f0       -0.0000    0.0000    0.0000    0.0000
    32 X1     4f1+       0.0000    0.0000   -0.0000   -0.0000
    33 X1     4f2+      -0.0000   -0.0000    0.0000   -0.0000
    34 X1     4f3+       0.0000   -0.0000    0.0000   -0.0000
    35 X1     5g4-      -0.0000    0.0000    0.0000    0.0000
    36 X1     5g3-       0.0000   -0.0000    0.0000   -0.0000
    37 X1     5g2-      -0.0000    0.0003   -0.0000    0.0000
    38 X1     5g1-      -0.0000   -0.0000   -0.0004    0.0000
    39 X1     5g0       -0.0000    0.0000   -0.0000    0.0000
    40 X1     5g1+       0.0000   -0.0000   -0.0000   -0.0004
    41 X1     5g2+       0.0003    0.0000    0.0000   -0.0000
    42 X1     5g3+       0.0000    0.0000    0.0000    0.0000
    43 X1     5g4+       0.0000    0.0000    0.0000    0.0000
--

      Von Neumann Entropy (Root  1) =  0.21417


      Mulliken population analysis for root number:  1
      -----------------------------------------------


++    Molecular charges:
      ------------------

      Mulliken charges per centre and basis function type
      ---------------------------------------------------

                N1      N2      X1    
      1s       3.9174  3.9174  0.0049
      2px      1.0202  1.0202  0.0039
      2pz      1.1265  1.1265 -0.0007
      2py      1.0133  1.0133  0.0041
      3d2+     0.0000  0.0000  0.0005
      3d1+     0.0000  0.0000 -0.0145
      3d0      0.0000  0.0000 -0.1003
      3d1-     0.0000  0.0000 -0.0001
      3d2-     0.0000  0.0000  0.0003
      4f3+     0.0000  0.0000  0.0001
      4f2+     0.0000  0.0000  0.0000
      4f1+     0.0000  0.0000 -0.0314
      4f0      0.0000  0.0000  0.0086
      4f1-     0.0000  0.0000 -0.0303
      4f2-     0.0000  0.0000  0.0000
      4f3-     0.0000  0.0000  0.0001
      5g4+     0.0000  0.0000  0.0000
      5g3+     0.0000  0.0000  0.0000
      5g2+     0.0000  0.0000  0.0000
      5g1+     0.0000  0.0000 -0.0000
      5g0      0.0000  0.0000 -0.0001
      5g1-     0.0000  0.0000 -0.0000
      5g2-     0.0000  0.0000  0.0000
      5g3-     0.0000  0.0000  0.0000
      5g4-     0.0000  0.0000  0.0000
      Total    7.0774  7.0774 -0.1548

      N-E     -0.0774 -0.0774  0.1548

      Total electronic charge=   14.000000

      Total            charge=   -0.000000
--



      Expectation values of various properties for root number:  1
      -----------------------------------------------------------


++    Molecular properties:
      ---------------------

      Charge (e):
                      =   -0.0000
      Dipole Moment (Debye):
      Origin of the operator (Ang)=    0.0000    0.0000    0.0000
                   X=  6.8066E-17               Y=  3.6418E-17               Z=  1.2586E-13           Total=  1.2586E-13
      Quadrupole Moment (Debye*Ang):
      Origin of the operator (Ang)=    0.0000    0.0000    0.0000
                  XX= -9.9494E+00              XY=  3.3414E-03              XZ= -2.5369E-16              YY= -9.8109E+00
                  YZ=  1.6338E-16              ZZ= -1.0787E+01
      In traceless form (Debye*Ang)
                  XX=  3.4967E-01              XY=  5.0122E-03              XZ= -3.8053E-16              YY=  5.5741E-01
                  YZ=  2.4508E-16              ZZ= -9.0708E-01
--

      Von Neumann Entropy (Root  2) =  1.00000


      Mulliken population analysis for root number:  2
      -----------------------------------------------


++    Molecular charges:
      ------------------

      Mulliken charges per centre and basis function type
      ---------------------------------------------------

                N1      N2      X1    
      1s       3.9173  3.9173  0.0049
      2px      0.5076  0.5076  0.0020
      2pz      1.1266  1.1266 -0.0007
      2py      1.4159  1.4159  0.0041
      3d2+     0.0000  0.0000  0.0000
      3d1+     0.0000  0.0000  0.0001
      3d0      0.0000  0.0000 -0.1007
      3d1-     0.0000  0.0000  0.1933
      3d2-     0.0000  0.0000  0.0000
      4f3+     0.0000  0.0000  0.0000
      4f2+     0.0000  0.0000  0.0000
      4f1+     0.0000  0.0000 -0.0162
      4f0      0.0000  0.0000  0.0086
      4f1-     0.0000  0.0000 -0.0303
      4f2-     0.0000  0.0000  0.0000
      4f3-     0.0000  0.0000  0.0001
      5g4+     0.0000  0.0000  0.0000
      5g3+     0.0000  0.0000  0.0000
      5g2+     0.0000  0.0000  0.0000
      5g1+     0.0000  0.0000 -0.0000
      5g0      0.0000  0.0000 -0.0001
      5g1-     0.0000  0.0000 -0.0000
      5g2-     0.0000  0.0000  0.0000
      5g3-     0.0000  0.0000  0.0000
      5g4-     0.0000  0.0000  0.0000
      Total    6.9674  6.9674  0.0652

      N-E      0.0326  0.0326 -0.0652

      Total electronic charge=   14.000000

      Total            charge=   -0.000000
--



      Expectation values of various properties for root number:  2
      -----------------------------------------------------------


++    Molecular properties:
      ---------------------

      Charge (e):
                      =   -0.0000
      Dipole Moment (Debye):
      Origin of the operator (Ang)=    0.0000    0.0000    0.0000
                   X=  3.7086E-16               Y= -2.3123E-16               Z=  1.2219E-13           Total=  1.2219E-13
      Quadrupole Moment (Debye*Ang):
      Origin of the operator (Ang)=    0.0000    0.0000    0.0000
                  XX= -8.6404E+00              XY= -6.3085E-02              XZ=  4.2724E-16              YY= -1.1255E+01
                  YZ= -5.3208E-17              ZZ= -1.2126E+01
      In traceless form (Debye*Ang)
                  XX=  3.0503E+00              XY= -9.4628E-02              XZ=  6.4085E-16              YY= -8.7189E-01
                  YZ= -7.9812E-17              ZZ= -2.1784E+00
--

      Von Neumann Entropy (Root  3) =  1.00000


      Mulliken population analysis for root number:  3
      -----------------------------------------------


++    Molecular charges:
      ------------------

      Mulliken charges per centre and basis function type
      ---------------------------------------------------

                N1      N2      X1    
      1s       3.9173  3.9173  0.0049
      2px      0.6813  0.6813  0.0020
      2pz      1.1266  1.1266 -0.0007
      2py      1.0129  1.0129  0.0041
      3d2+     0.0000  0.0000  0.0000
      3d1+     0.0000  0.0000  0.6517
      3d0      0.0000  0.0000 -0.1007
      3d1-     0.0000  0.0000  0.0004
      3d2-     0.0000  0.0000  0.0000
      4f3+     0.0000  0.0000  0.0000
      4f2+     0.0000  0.0000  0.0000
      4f1+     0.0000  0.0000 -0.0162
      4f0      0.0000  0.0000  0.0086
      4f1-     0.0000  0.0000 -0.0303
      4f2-     0.0000  0.0000  0.0000
      4f3-     0.0000  0.0000  0.0001
      5g4+     0.0000  0.0000  0.0000
      5g3+     0.0000  0.0000  0.0000
      5g2+     0.0000  0.0000  0.0000
      5g1+     0.0000  0.0000 -0.0000
      5g0      0.0000  0.0000 -0.0001
      5g1-     0.0000  0.0000 -0.0000
      5g2-     0.0000  0.0000  0.0000
      5g3-     0.0000  0.0000  0.0000
      5g4-     0.0000  0.0000  0.0000
      Total    6.7380  6.7380  0.5239

      N-E      0.2620  0.2620 -0.5239

      Total electronic charge=   14.000000

      Total            charge=   -0.000000
--



      Expectation values of various properties for root number:  3
      -----------------------------------------------------------


++    Molecular properties:
      ---------------------

      Charge (e):
                      =   -0.0000
      Dipole Moment (Debye):
      Origin of the operator (Ang)=    0.0000    0.0000    0.0000
                   X= -1.3468E-14               Y=  2.0341E-15               Z=  1.2981E-13           Total=  1.3052E-13
      Quadrupole Moment (Debye*Ang):
      Origin of the operator (Ang)=    0.0000    0.0000    0.0000
                  XX= -1.1255E+01              XY=  2.4012E-02              XZ=  2.3461E-16              YY= -1.0260E+01
                  YZ= -2.1376E-17              ZZ= -1.2962E+01
      In traceless form (Debye*Ang)
                  XX=  3.5580E-01              XY=  3.6018E-02              XZ=  3.5191E-16              YY=  1.8487E+00
                  YZ= -3.2064E-17              ZZ= -2.2045E+00
--

      Von Neumann Entropy (Root  4) =  1.00000


      Mulliken population analysis for root number:  4
      -----------------------------------------------


++    Molecular charges:
      ------------------

      Mulliken charges per centre and basis function type
      ---------------------------------------------------

                N1      N2      X1    
      1s       3.9856  3.9856  0.0052
      2px      0.5074  0.5074  0.0020
      2pz      0.9708  0.9708 -0.0007
      2py      1.0128  1.0128  0.0041
      3d2+     0.0000  0.0000  0.0231
      3d1+     0.0000  0.0000  0.0000
      3d0      0.0000  0.0000  1.0508
      3d1-     0.0000  0.0000  0.0000
      3d2-     0.0000  0.0000  0.0001
      4f3+     0.0000  0.0000  0.0000
      4f2+     0.0000  0.0000  0.0000
      4f1+     0.0000  0.0000 -0.0162
      4f0      0.0000  0.0000  0.0086
      4f1-     0.0000  0.0000 -0.0303
      4f2-     0.0000  0.0000  0.0000
      4f3-     0.0000  0.0000  0.0001
      5g4+     0.0000  0.0000  0.0000
      5g3+     0.0000  0.0000  0.0000
      5g2+     0.0000  0.0000  0.0000
      5g1+     0.0000  0.0000 -0.0000
      5g0      0.0000  0.0000 -0.0001
      5g1-     0.0000  0.0000 -0.0000
      5g2-     0.0000  0.0000  0.0000
      5g3-     0.0000  0.0000  0.0000
      5g4-     0.0000  0.0000  0.0000
      Total    6.4766  6.4766  1.0467

      N-E      0.5234  0.5234 -1.0467

      Total electronic charge=   14.000000

      Total            charge=   -0.000000
--



      Expectation values of various properties for root number:  4
      -----------------------------------------------------------


++    Molecular properties:
      ---------------------

      Charge (e):
                      =   -0.0000
      Dipole Moment (Debye):
      Origin of the operator (Ang)=    0.0000    0.0000    0.0000
                   X=  9.9970E-16               Y= -1.3963E-15               Z= -2.1672E-13           Total=  2.1673E-13
      Quadrupole Moment (Debye*Ang):
      Origin of the operator (Ang)=    0.0000    0.0000    0.0000
                  XX= -1.2307E+01              XY= -8.0592E-02              XZ=  1.5256E-13              YY= -1.5648E+01
                  YZ= -2.0394E-14              ZZ= -1.1780E+01
      In traceless form (Debye*Ang)
                  XX=  1.4064E+00              XY= -1.2089E-01              XZ=  2.2883E-13              YY= -3.6042E+00
                  YZ= -3.0591E-14              ZZ=  2.1979E+00
--

      Von Neumann Entropy (Root  5) =  0.14862


      Mulliken population analysis for root number:  5
      -----------------------------------------------


++    Molecular charges:
      ------------------

      Mulliken charges per centre and basis function type
      ---------------------------------------------------

                N1      N2      X1    
      1s       3.9173  3.9173  0.0049
      2px      0.0170  0.0170  0.0000
      2pz      1.1266  1.1266 -0.0007
      2py      1.7972  1.7972  0.0041
      3d2+     0.0000  0.0000  0.0001
      3d1+     0.0000  0.0000  0.0047
      3d0      0.0000  0.0000 -0.1006
      3d1-     0.0000  0.0000  0.3929
      3d2-     0.0000  0.0000  0.0001
      4f3+     0.0000  0.0000  0.0000
      4f2+     0.0000  0.0000  0.0000
      4f1+     0.0000  0.0000 -0.0000
      4f0      0.0000  0.0000  0.0086
      4f1-     0.0000  0.0000 -0.0303
      4f2-     0.0000  0.0000  0.0000
      4f3-     0.0000  0.0000  0.0001
      5g4+     0.0000  0.0000  0.0000
      5g3+     0.0000  0.0000  0.0000
      5g2+     0.0000  0.0000  0.0000
      5g1+     0.0000  0.0000 -0.0000
      5g0      0.0000  0.0000 -0.0001
      5g1-     0.0000  0.0000 -0.0000
      5g2-     0.0000  0.0000  0.0000
      5g3-     0.0000  0.0000  0.0000
      5g4-     0.0000  0.0000  0.0000
      Total    6.8581  6.8581  0.2838

      N-E      0.1419  0.1419 -0.2838

      Total electronic charge=   14.000000

      Total            charge=   -0.000000
--



      Expectation values of various properties for root number:  5
      -----------------------------------------------------------


++    Molecular properties:
      ---------------------

      Charge (e):
                      =   -0.0000
      Dipole Moment (Debye):
      Origin of the operator (Ang)=    0.0000    0.0000    0.0000
                   X=  1.1046E-15               Y= -3.6472E-16               Z=  1.0159E-13           Total=  1.0160E-13
      Quadrupole Moment (Debye*Ang):
      Origin of the operator (Ang)=    0.0000    0.0000    0.0000
                  XX= -7.3647E+00              XY= -1.2822E-01              XZ=  1.3465E-15              YY= -1.2679E+01
                  YZ=  2.7890E-15              ZZ= -1.3550E+01
      In traceless form (Debye*Ang)
                  XX=  5.7499E+00              XY= -1.9232E-01              XZ=  2.0197E-15              YY= -2.2217E+00
                  YZ=  4.1835E-15              ZZ= -3.5282E+00
--

      Von Neumann Entropy (Root  6) =  1.01442


      Mulliken population analysis for root number:  6
      -----------------------------------------------


++    Molecular charges:
      ------------------

      Mulliken charges per centre and basis function type
      ---------------------------------------------------

                N1      N2      X1    
      1s       3.9173  3.9173  0.0049
      2px      0.3705  0.3705  0.0000
      2pz      1.1266  1.1266 -0.0007
      2py      1.4313  1.4313  0.0041
      3d2+     0.0000  0.0000  0.0000
      3d1+     0.0000  0.0000  0.2602
      3d0      0.0000  0.0000 -0.1007
      3d1-     0.0000  0.0000  0.1623
      3d2-     0.0000  0.0000  0.0000
      4f3+     0.0000  0.0000  0.0000
      4f2+     0.0000  0.0000  0.0000
      4f1+     0.0000  0.0000 -0.0000
      4f0      0.0000  0.0000  0.0086
      4f1-     0.0000  0.0000 -0.0303
      4f2-     0.0000  0.0000  0.0000
      4f3-     0.0000  0.0000  0.0001
      5g4+     0.0000  0.0000  0.0000
      5g3+     0.0000  0.0000  0.0000
      5g2+     0.0000  0.0000  0.0000
      5g1+     0.0000  0.0000 -0.0000
      5g0      0.0000  0.0000 -0.0001
      5g1-     0.0000  0.0000 -0.0000
      5g2-     0.0000  0.0000  0.0000
      5g3-     0.0000  0.0000  0.0000
      5g4-     0.0000  0.0000  0.0000
      Total    6.8457  6.8457  0.3085

      N-E      0.1543  0.1543 -0.3085

      Total electronic charge=   14.000000

      Total            charge=   -0.000000
--



      Expectation values of various properties for root number:  6
      -----------------------------------------------------------


++    Molecular properties:
      ---------------------

      Charge (e):
                      =   -0.0000
      Dipole Moment (Debye):
      Origin of the operator (Ang)=    0.0000    0.0000    0.0000
                   X=  8.3068E-16               Y= -2.4430E-16               Z=  8.4657E-14           Total=  8.4662E-14
      Quadrupole Moment (Debye*Ang):
      Origin of the operator (Ang)=    0.0000    0.0000    0.0000
                  XX= -8.9436E+00              XY= -5.7210E-02              XZ=  7.6307E-16              YY= -1.1315E+01
                  YZ= -4.5186E-16              ZZ= -1.3683E+01
      In traceless form (Debye*Ang)
                  XX=  3.5554E+00              XY= -8.5815E-02              XZ=  1.1446E-15              YY= -1.4557E-03
                  YZ= -6.7778E-16              ZZ= -3.5540E+00
--

      Von Neumann Entropy (Root  7) =  1.00000


      Mulliken population analysis for root number:  7
      -----------------------------------------------


++    Molecular charges:
      ------------------

      Mulliken charges per centre and basis function type
      ---------------------------------------------------

                N1      N2      X1    
      1s       3.9173  3.9173  0.0049
      2px      0.5074  0.5074  0.0020
      2pz      1.1266  1.1266 -0.0007
      2py      1.0128  1.0128  0.0041
      3d2+     0.0000  0.0000  0.0023
      3d1+     0.0000  0.0000  0.0000
      3d0      0.0000  0.0000 -0.1007
      3d1-     0.0000  0.0000 -0.0000
      3d2-     0.0000  0.0000  0.9977
      4f3+     0.0000  0.0000  0.0000
      4f2+     0.0000  0.0000  0.0000
      4f1+     0.0000  0.0000 -0.0162
      4f0      0.0000  0.0000  0.0086
      4f1-     0.0000  0.0000 -0.0303
      4f2-     0.0000  0.0000  0.0000
      4f3-     0.0000  0.0000  0.0001
      5g4+     0.0000  0.0000  0.0000
      5g3+     0.0000  0.0000  0.0000
      5g2+     0.0000  0.0000  0.0000
      5g1+     0.0000  0.0000  0.0000
      5g0      0.0000  0.0000 -0.0001
      5g1-     0.0000  0.0000  0.0000
      5g2-     0.0000  0.0000  0.0000
      5g3-     0.0000  0.0000  0.0000
      5g4-     0.0000  0.0000  0.0000
      Total    6.5641  6.5641  0.8719

      N-E      0.4359  0.4359 -0.8719

      Total electronic charge=   14.000000

      Total            charge=   -0.000000
--



      Expectation values of various properties for root number:  7
      -----------------------------------------------------------


++    Molecular properties:
      ---------------------

      Charge (e):
                      =   -0.0000
      Dipole Moment (Debye):
      Origin of the operator (Ang)=    0.0000    0.0000    0.0000
                   X=  5.7407E-16               Y= -9.9579E-17               Z=  5.8357E-13           Total=  5.8357E-13
      Quadrupole Moment (Debye*Ang):
      Origin of the operator (Ang)=    0.0000    0.0000    0.0000
                  XX= -1.3333E+01              XY= -2.9287E-02              XZ=  8.0587E-16              YY= -1.4547E+01
                  YZ= -1.3379E-13              ZZ= -1.0928E+01
      In traceless form (Debye*Ang)
                  XX= -5.9519E-01              XY= -4.3930E-02              XZ=  1.2088E-15              YY= -2.4165E+00
                  YZ= -2.0069E-13              ZZ=  3.0117E+00
--

      Von Neumann Entropy (Root  8) =  1.00000


      Mulliken population analysis for root number:  8
      -----------------------------------------------


++    Molecular charges:
      ------------------

      Mulliken charges per centre and basis function type
      ---------------------------------------------------

                N1      N2      X1    
      1s       3.9193  3.9193  0.0049
      2px      0.5074  0.5074  0.0020
      2pz      1.1226  1.1226 -0.0007
      2py      1.0128  1.0128  0.0041
      3d2+     0.0000  0.0000  0.9745
      3d1+     0.0000  0.0000  0.0000
      3d0      0.0000  0.0000 -0.0733
      3d1-     0.0000  0.0000  0.0000
      3d2-     0.0000  0.0000  0.0023
      4f3+     0.0000  0.0000  0.0000
      4f2+     0.0000  0.0000  0.0000
      4f1+     0.0000  0.0000 -0.0162
      4f0      0.0000  0.0000  0.0086
      4f1-     0.0000  0.0000 -0.0303
      4f2-     0.0000  0.0000  0.0000
      4f3-     0.0000  0.0000  0.0001
      5g4+     0.0000  0.0000  0.0000
      5g3+     0.0000  0.0000  0.0000
      5g2+     0.0000  0.0000  0.0000
      5g1+     0.0000  0.0000  0.0000
      5g0      0.0000  0.0000 -0.0001
      5g1-     0.0000  0.0000  0.0000
      5g2-     0.0000  0.0000  0.0000
      5g3-     0.0000  0.0000  0.0000
      5g4-     0.0000  0.0000  0.0000
      Total    6.5620  6.5620  0.8760

      N-E      0.4380  0.4380 -0.8760

      Total electronic charge=   14.000000

      Total            charge=   -0.000000
--



      Expectation values of various properties for root number:  8
      -----------------------------------------------------------


++    Molecular properties:
      ---------------------

      Charge (e):
                      =   -0.0000
      Dipole Moment (Debye):
      Origin of the operator (Ang)=    0.0000    0.0000    0.0000
                   X=  3.0702E-16               Y=  2.7740E-16               Z=  1.3884E-13           Total=  1.3884E-13
      Quadrupole Moment (Debye*Ang):
      Origin of the operator (Ang)=    0.0000    0.0000    0.0000
                  XX= -1.4438E+01              XY=  2.3700E-02              XZ= -3.2212E-13              YY= -1.3455E+01
                  YZ= -1.7279E-14              ZZ= -1.0943E+01
      In traceless form (Debye*Ang)
                  XX= -2.2391E+00              XY=  3.5550E-02              XZ= -4.8318E-13              YY= -7.6428E-01
                  YZ= -2.5919E-14              ZZ=  3.0033E+00
--

      Von Neumann Entropy (Root  9) =  0.34608


      Mulliken population analysis for root number:  9
      -----------------------------------------------


++    Molecular charges:
      ------------------

      Mulliken charges per centre and basis function type
      ---------------------------------------------------

                N1      N2      X1    
      1s       3.9174  3.9174  0.0049
      2px      0.6965  0.6965  0.0001
      2pz      1.1265  1.1265 -0.0007
      2py      1.0240  1.0240  0.0041
      3d2+     0.0000  0.0000  0.0006
      3d1+     0.0000  0.0000  0.5705
      3d0      0.0000  0.0000 -0.1004
      3d1-     0.0000  0.0000  0.0140
      3d2-     0.0000  0.0000  0.0005
      4f3+     0.0000  0.0000  0.0000
      4f2+     0.0000  0.0000  0.0000
      4f1+     0.0000  0.0000 -0.0009
      4f0      0.0000  0.0000  0.0086
      4f1-     0.0000  0.0000 -0.0303
      4f2-     0.0000  0.0000  0.0000
      4f3-     0.0000  0.0000  0.0001
      5g4+     0.0000  0.0000  0.0000
      5g3+     0.0000  0.0000  0.0000
      5g2+     0.0000  0.0000  0.0000
      5g1+     0.0000  0.0000 -0.0000
      5g0      0.0000  0.0000 -0.0001
      5g1-     0.0000  0.0000 -0.0000
      5g2-     0.0000  0.0000  0.0000
      5g3-     0.0000  0.0000  0.0000
      5g4-     0.0000  0.0000  0.0000
      Total    6.7645  6.7645  0.4710

      N-E      0.2355  0.2355 -0.4710

      Total electronic charge=   14.000000

      Total            charge=   -0.000000
--



      Expectation values of various properties for root number:  9
      -----------------------------------------------------------


++    Molecular properties:
      ---------------------

      Charge (e):
                      =   -0.0000
      Dipole Moment (Debye):
      Origin of the operator (Ang)=    0.0000    0.0000    0.0000
                   X=  5.3978E-16               Y= -1.8754E-16               Z=  1.2416E-13           Total=  1.2417E-13
      Quadrupole Moment (Debye*Ang):
      Origin of the operator (Ang)=    0.0000    0.0000    0.0000
                  XX= -1.0738E+01              XY=  1.3340E-02              XZ= -3.4822E-16              YY= -1.0185E+01
                  YZ=  2.5897E-14              ZZ= -1.3966E+01
      In traceless form (Debye*Ang)
                  XX=  1.3374E+00              XY=  2.0010E-02              XZ= -5.2233E-16              YY=  2.1669E+00
                  YZ=  3.8845E-14              ZZ= -3.5043E+00
--

      Von Neumann Entropy (Root 10) =  1.00000


      Mulliken population analysis for root number: 10
      -----------------------------------------------


++    Molecular charges:
      ------------------

      Mulliken charges per centre and basis function type
      ---------------------------------------------------

                N1      N2      X1    
      1s       3.9173  3.9173  0.0049
      2px      0.5073  0.5073  0.0020
      2pz      1.1266  1.1266 -0.0007
      2py      0.7878  0.7878  0.0041
      3d2+     0.0000  0.0000  0.0000
      3d1+     0.0000  0.0000  0.0008
      3d0      0.0000  0.0000 -0.1007
      3d1-     0.0000  0.0000  1.4493
      3d2-     0.0000  0.0000  0.0000
      4f3+     0.0000  0.0000  0.0000
      4f2+     0.0000  0.0000  0.0000
      4f1+     0.0000  0.0000 -0.0162
      4f0      0.0000  0.0000  0.0086
      4f1-     0.0000  0.0000 -0.0303
      4f2-     0.0000  0.0000  0.0000
      4f3-     0.0000  0.0000  0.0001
      5g4+     0.0000  0.0000  0.0000
      5g3+     0.0000  0.0000  0.0000
      5g2+     0.0000  0.0000  0.0000
      5g1+     0.0000  0.0000  0.0000
      5g0      0.0000  0.0000 -0.0001
      5g1-     0.0000  0.0000  0.0000
      5g2-     0.0000  0.0000  0.0000
      5g3-     0.0000  0.0000  0.0000
      5g4-     0.0000  0.0000  0.0000
      Total    6.3390  6.3390  1.3220

      N-E      0.6610  0.6610 -1.3220

      Total electronic charge=   14.000000

      Total            charge=   -0.000000
--



      Expectation values of various properties for root number: 10
      -----------------------------------------------------------


++    Molecular properties:
      ---------------------

      Charge (e):
[...]
     MLTPV  2   6 (ANTISING)

  Nr of states:                   16

   State:        1   2   3   4   5   6   7   8   9  10  11  12  13  14  15  16
  JobIph:        1   1   1   1   1   1   1   1   1   1   1   1   1   1   1   1
 Root nr:        1   2   3   4   5   6   7   8   9  10  11  12  13  14  15  16

  HAMILTONIAN MATRIX FOR THE ORIGINAL STATES:

  Diagonal, with energies
   -108.83222458   -108.47875023   -108.25578802   -108.10518597   -108.09153837
   -108.04523736   -108.00483636   -108.00099298   -107.93565987   -107.87315948
   -107.81944582   -107.77147290   -107.69650714   -107.66597939   -107.66369381
   -107.59652828

      OVERLAP MATRIX FOR THE ORIGINAL STATES:

  Diagonal, with elements
      1.00000000      1.00000000      1.00000000      1.00000000      1.00000000
      1.00000000      1.00000000      1.00000000      1.00000000      1.00000000
      1.00000000      1.00000000      1.00000000      1.00000000      1.00000000
      1.00000000

::    RASSI State    1     Total energy:   -108.83222458
::    RASSI State    2     Total energy:   -108.47875023
::    RASSI State    3     Total energy:   -108.25578802
::    RASSI State    4     Total energy:   -108.10518597
::    RASSI State    5     Total energy:   -108.09153837
::    RASSI State    6     Total energy:   -108.04523736
::    RASSI State    7     Total energy:   -108.00483636
::    RASSI State    8     Total energy:   -108.00099298
::    RASSI State    9     Total energy:   -107.93565987
::    RASSI State   10     Total energy:   -107.87315948
::    RASSI State   11     Total energy:   -107.81944582
::    RASSI State   12     Total energy:   -107.77147290
::    RASSI State   13     Total energy:   -107.69650714
::    RASSI State   14     Total energy:   -107.66597939
::    RASSI State   15     Total energy:   -107.66369381
::    RASSI State   16     Total energy:   -107.59652828



      ****************************************************************************************************
      *                                                                                                  *
      *                                         Spin-free section                                        *
      *                                                                                                  *
      *                 Note: index according to input order, order according to energy.                 *
      *                                                                                                  *
      ****************************************************************************************************



  SPIN-FREE ENERGIES:
  (Shifted by EMIN (a.u.) =       -108.8322245836)

 SF State       Relative EMIN(au)   Rel lowest level(eV)    D:o, cm**(-1)

     1             0.0000000000        0.0000000000              0.0000
     2             0.3534743523        9.6185271293          77578.6532
     3             0.5764365642       15.6856379945         126513.2024
     4             0.7270386160       19.7837285950         159566.5322
     5             0.7406862107       20.1550985652         162561.8330
     6             0.7869872228       21.4150132915         172723.7306
     7             0.8273882284       22.5143806572         181590.7264
     8             0.8312316025       22.6189641944         182434.2495
     9             0.8965647157       24.3967687746         196773.2105
    10             0.9590651053       26.0974910160         210490.4604
    11             1.0127787650       27.5591141558         222279.2461
    12             1.0607516812       28.8645237079         232808.0842
    13             1.1357174407       30.9044459466         249261.1666
    14             1.1662451951       31.7351484620         255961.2343
    15             1.1685307763       31.7973422943         256462.8614
    16             1.2356963071       33.6250094954         271203.9915

++ Dipole transition strengths (spin-free states):
   -----------------------------------------------
     for osc. strength at least  1.00000000E-05

      From   To        Osc. strength     Einstein coefficients Ax, Ay, Az (sec-1)    Total A (sec-1)
     -----------------------------------------------------------------------------------------------
         1    3       5.73841381E-01  3.62976792E-21  3.62462686E-22  6.12640620E+09  6.12640620E+09
         1    4       1.98393560E-01  3.36744868E+09  1.95783812E+06  5.76047506E-18  3.36940652E+09
         1    7       3.90227714E-01  4.97910110E+06  8.57819001E+09  6.50069489E-19  8.58316912E+09
         1    8       5.15301262E-01  1.14331024E+10  6.63829474E+06  3.40778890E-18  1.14397407E+10
         1   11       2.08436607E-02  2.50781265E-18  2.43582050E-17  6.86932482E+08  6.86932482E+08
         2    6       3.30619052E-01  1.53043013E-23  2.12400017E-26  1.99637789E+09  1.99637789E+09
         2   12       2.33755489E-01  3.75491186E+09  2.18314242E+06  5.21740456E-24  3.75709500E+09
         2   13       3.05040369E-02  3.48507994E+05  5.99375825E+08  2.17605596E-22  5.99724333E+08
         2   14       1.68173667E-01  2.07225463E+06  3.56740902E+09  3.23489133E-23  3.56948128E+09
         2   15       1.16871633E-01  2.49312060E+09  1.44738419E+06  1.02662210E-23  2.49456799E+09
         2   16       1.54928907E-03  3.87217932E+07  2.17257628E+04  7.61626060E-23  3.87435190E+07
         3    5       4.91977749E-03  2.26140253E-24  1.02902885E-23  4.26447166E+06  4.26447166E+06
         3    9       6.20400395E-01  1.94683698E-23  9.60242279E-22  2.04282274E+09  2.04282274E+09
         3   12       5.56759310E-04  2.43774935E+03  4.19355203E+06  1.12456562E-19  4.19598978E+06
         3   13       9.68541637E-02  9.72829415E+08  5.65602138E+05  1.96378538E-21  9.73395018E+08
         3   14       2.49423949E-02  2.78624191E+08  1.62014887E+05  8.95686580E-22  2.78786206E+08
         3   15       1.24499376E-05  7.73108768E+01  1.40158745E+05  3.17768375E-20  1.40236056E+05
         3   16       1.50002487E-01  1.14931714E+06  2.09355369E+09  1.88896890E-18  2.09470301E+09
         4    9       1.12334375E-03  1.03667893E+06  6.02726389E+02  1.57463638E-19  1.03728166E+06
         4   13       2.53624824E-01  8.73877008E-19  9.37629513E-22  1.36102755E+09  1.36102755E+09
         4   14       4.80266383E-02  3.30826225E-19  2.03089528E-21  2.97667038E+08  2.97667038E+08
         5    7       1.03180637E-05  1.44591013E+00  2.49066575E+03  9.57911259E-23  2.49211166E+03
         5    8       1.00113896E-05  2.63563883E+03  1.53010271E+00  3.51078815E-22  2.63716893E+03
         5   11       4.20725148E-04  5.13473926E-22  3.97625837E-21  1.00078934E+06  1.00078934E+06
         6   10       2.88144420E-05  3.37438338E-23  9.12786905E-24  2.74139240E+04  2.74139240E+04
         7    9       7.68861425E-04  6.85793553E+01  1.18147341E+05  1.96726831E-21  1.18215920E+05
         7   12       8.40816762E-04  3.61804040E-22  3.73245652E-22  1.47122105E+06  1.47122105E+06
         7   15       2.26717539E-05  8.73145525E-28  9.14282478E-23  8.47749963E+04  8.47749963E+04
         7   16       3.07123703E-01  1.53847464E-23  7.17219479E-20  1.64512979E+09  1.64512979E+09
         8    9       9.05353695E-04  1.24092002E+05  7.20485187E+01  3.41064742E-21  1.24164050E+05
         8   13       5.37219634E-03  1.83812791E-19  3.40444042E-22  1.60028361E+07  1.60028361E+07
         8   14       3.71702883E-03  8.07581955E-20  2.75813309E-24  1.34039152E+07  1.34039152E+07
         9   11       5.25095929E-03  3.91578179E-23  1.14873042E-20  2.27859323E+06  2.27859323E+06
        10   12       3.43492305E-04  1.14051950E+05  6.63107547E+01  2.12140744E-24  1.14118261E+05
        10   13       5.61545617E-05  3.27158066E+01  5.62706934E+04  6.75969826E-21  5.63034092E+04
        10   14       6.34794193E-04  5.08283123E+02  8.74958883E+05  4.33378486E-21  8.75467166E+05
        10   15       3.66114117E-04  5.15823400E+05  2.99434476E+02  1.12939382E-22  5.16122834E+05
        10   16       4.28004058E-05  1.05175613E+05  5.96031627E+01  1.46829831E-22  1.05235216E+05
        11   13       2.01919917E-03  9.79974284E+05  5.69757364E+02  6.17119664E-19  9.80544042E+05
        11   14       6.76146996E-04  5.11359517E+05  2.97327935E+02  1.56560037E-19  5.11656845E+05
        11   16       4.72300794E-03  4.12874717E+03  7.53668218E+06  4.90034959E-19  7.54081092E+06
     -----------------------------------------------------------------------------------------------
--

++ Velocity transition strengths (spin-free states):
   -------------------------------------------------
     for osc. strength at least  1.00000000E-05

      From   To        Osc. strength     Einstein coefficients Ax, Ay, Az (sec-1)    Total A (sec-1)
     -----------------------------------------------------------------------------------------------
         1    3       4.14263123E-01  2.09791405E-21  8.80896997E-22  4.42272769E+09  4.42272769E+09
         1    4       1.24790269E-01  2.11813744E+09  1.23148868E+06  1.27480220E-18  2.11936893E+09
         1    7       3.48881625E-01  4.45141051E+06  7.66929876E+09  1.23992343E-19  7.67375017E+09
         1    8       4.13127214E-01  9.16614478E+09  5.32164699E+06  6.28183149E-19  9.17146643E+09
         1   11       2.37849258E-03  4.85481944E-18  1.73615366E-17  7.83866057E+07  7.83866057E+07
         2    6       2.10794414E-01  2.91046797E-23  1.04073889E-24  1.27284046E+09  1.27284046E+09
         2   12       1.77514510E-01  2.85148956E+09  1.65788380E+06  2.07846016E-23  2.85314744E+09
         2   13       2.90324995E-02  3.31653529E+05  5.70461532E+08  4.40372472E-22  5.70793185E+08
         2   14       1.48262849E-01  1.82666253E+06  3.14504808E+09  1.94849920E-23  3.14687474E+09
         2   15       1.06584254E-01  2.27366891E+09  1.32000470E+06  3.95492191E-24  2.27498892E+09
         2   16       7.89561173E-04  1.97337961E+07  1.09880445E+04  7.71293060E-23  1.97447841E+07
         3    5       1.63125421E-02  4.07427740E-23  2.18610650E-22  1.41397397E+07  1.41397397E+07
         3    9       3.66270446E-01  1.04766062E-23  5.31725964E-21  1.20603662E+09  1.20603662E+09
         3   12       1.38236273E-03  6.05220323E+03  1.04120581E+07  1.93563941E-20  1.04181103E+07
         3   13       1.06076666E-01  1.06546273E+09  6.19457327E+05  6.12934602E-21  1.06608218E+09
         3   14       2.62758149E-02  2.93519430E+08  1.70681862E+05  3.80026723E-23  2.93690112E+08
         3   15       2.06821680E-05  1.29785255E+02  2.32834087E+05  1.27926317E-24  2.32963872E+05
         3   16       2.00999933E-01  1.54273364E+06  2.80531182E+09  2.37194737E-19  2.80685456E+09
         4    5       6.84653530E-04  4.09488328E+03  2.38090486E+00  1.58882986E-21  4.09726419E+03
         4    6       4.33153057E-05  2.90262831E+00  4.99871467E+03  1.03586833E-23  5.00161730E+03
         4    9       1.73092551E-02  1.59738638E+07  9.28722453E+03  4.49748540E-19  1.59831510E+07
         4   13       1.75773558E-01  1.66319638E-18  2.24003052E-21  9.43254096E+08  9.43254096E+08
         4   14       2.85874537E-02  6.52321217E-19  5.50231275E-21  1.77183809E+08  1.77183809E+08
         5    7       2.13969789E-05  2.99565200E+00  5.16499539E+03  5.53432618E-22  5.16799104E+03
         5    8       8.38495052E-05  2.20745546E+04  1.28198104E+01  3.87229151E-21  2.20873744E+04
         5   11       5.90598305E-04  3.53619382E-21  4.59770281E-20  1.40487083E+06  1.40487083E+06
         6    7       3.78429814E-05  1.98348049E+03  1.15419745E+00  7.47656800E-26  1.98463468E+03
         6   10       2.11053573E-04  3.97073165E-22  1.83682541E-22  2.00795372E+05  2.00795372E+05
         7    9       1.36472914E-01  1.21718404E+04  2.09711557E+07  1.36079645E-20  2.09833276E+07
         7   12       1.85249077E-03  2.80654283E-21  2.64573922E-22  3.24139994E+06  3.24139994E+06
         7   15       2.32283656E-05  2.52161359E-23  4.97019317E-21  8.68562980E+04  8.68562980E+04
         7   16       2.12449299E-01  2.37513120E-22  5.49287272E-19  1.13799966E+09  1.13799966E+09
         8    9       1.77918763E-01  2.43863763E+07  1.41583737E+04  6.66561051E-20  2.44005347E+07
         8   13       6.56072842E-03  8.60632855E-19  2.49526891E-21  1.95432659E+07  1.95432659E+07
         8   14       3.79808909E-03  2.33914815E-19  6.19019371E-23  1.36962252E+07  1.36962252E+07
         9   11       3.11509552E-02  8.80858288E-21  1.32500658E-18  1.35175978E+07  1.35175978E+07
        10   12       1.23179724E-02  4.09001527E+06  2.37796894E+03  1.22761174E-24  4.09239323E+06
        10   13       1.04798931E-03  6.10486941E+02  1.05015671E+06  2.22192840E-20  1.05076719E+06
        10   14       8.61286202E-03  6.89530493E+03  1.18714079E+07  1.07835946E-20  1.18783032E+07
        10   15       5.25630476E-03  7.40568252E+06  4.29919256E+03  2.25603529E-22  7.40998171E+06
        10   16       2.19894944E-04  5.40360735E+05  3.04510987E+02  2.55633398E-22  5.40665246E+05
        11   12       3.60887092E-04  1.55009863E+01  2.66699453E+04  3.63441221E-25  2.66854463E+04
        11   13       4.68590204E-02  2.27420037E+07  1.32221744E+04  4.77638611E-18  2.27552259E+07
        11   14       1.05385161E-02  7.97011668E+06  4.63427127E+03  7.62201387E-19  7.97475095E+06
        11   16       5.53529469E-02  4.84978577E+04  8.83286786E+07  1.10676641E-18  8.83771765E+07
     -----------------------------------------------------------------------------------------------
--

++ Length and velocity gauge comparison (spin-free states):
   --------------------------------------------------------

 --------------------------------------------------
 A comparison between the dipole oscillator strengths in 
 length and velocity gauge will be performed

 All dipole oscillator differences above the tolerance of   0.10000000000000001       will be printed 

 Due to basis set deficiency these oscillator may be problematic 

 The tolerance is defined as ABS(1-O_l/O_v) 
 O_l : dipole oscillator strength in length gauge
 O_p : dipole oscillator strength in velocity gauge
 --------------------------------------------------

  Problematic transitions have been found

      From   To       Difference (%) Osc. st. (len.) Osc. st. (vel.)
     ---------------------------------------------------------------
         1    3            38.520990  5.73841381E-01  4.14263123E-01
         1    4            58.981594  1.98393560E-01  1.24790269E-01
         1    7            11.851037  3.90227714E-01  3.48881625E-01
         1    8            24.731861  5.15301262E-01  4.13127214E-01
         1   11           776.339108  2.08436607E-02  2.37849258E-03
         2    6            56.844314  3.30619052E-01  2.10794414E-01
         2   12            31.682469  2.33755489E-01  1.77514510E-01
         2   14            13.429405  1.68173667E-01  1.48262849E-01
         2   16            96.221537  1.54928907E-03  7.89561173E-04
         3    5            69.840522  4.91977749E-03  1.63125421E-02
         3    9            69.383144  6.20400395E-01  3.66270446E-01
         3   12            59.724080  5.56759310E-04  1.38236273E-03
         3   15            39.803518  1.24499376E-05  2.06821680E-05
         3   16            25.371872  1.50002487E-01  2.00999933E-01
         4    5      --------------- below threshold  6.84653530E-04
         4    6      --------------- below threshold  4.33153057E-05
         4    9            93.510155  1.12334375E-03  1.73092551E-02
         4   13            44.290658  2.53624824E-01  1.75773558E-01
         4   14            67.999007  4.80266383E-02  2.85874537E-02
         5    7            51.777942  1.03180637E-05  2.13969789E-05
         5    8            88.060288  1.00113896E-05  8.38495052E-05
         5   11            28.762893  4.20725148E-04  5.90598305E-04
         6    7      --------------- below threshold  3.78429814E-05
         6   10            86.347333  2.88144420E-05  2.11053573E-04
         7    9            99.436620  7.68861425E-04  1.36472914E-01
         7   12            54.611555  8.40816762E-04  1.85249077E-03
         7   16            44.563293  3.07123703E-01  2.12449299E-01
         8    9            99.491142  9.05353695E-04  1.77918763E-01
         8   13            18.115856  5.37219634E-03  6.56072842E-03
         9   11            83.143505  5.25095929E-03  3.11509552E-02
        10   12            97.211454  3.43492305E-04  1.23179724E-02
        10   13            94.641686  5.61545617E-05  1.04798931E-03
        10   14            92.629695  6.34794193E-04  8.61286202E-03
        10   15            93.034762  3.66114117E-04  5.25630476E-03
        10   16            80.535975  4.28004058E-05  2.19894944E-04
        11   12      --------------- below threshold  3.60887092E-04
        11   13            95.690906  2.01919917E-03  4.68590204E-02
        11   14            93.584040  6.76146996E-04  1.05385161E-02
        11   16            91.467468  4.72300794E-03  5.53529469E-02
     ---------------------------------------------------------------

 Number of problematic transitions =                    39

--

 Electric-dipole - electric-octupole not included
 Electric-dipole - magnetic-quadrupole not included


      ****************************************************************************************************
      *                                                                                                  *
      *                                    Special properties section                                    *
      *                                                                                                  *
      ****************************************************************************************************


++ I/O STATISTICS
 
  I. General I/O information
  - - - - - - - - - - - - - - - - - - - - - - - - - - - - - - - - - - - - - - - - - - -
  Unit  Name          Flsize      Write/Read            MBytes           Write/Read
                      (MBytes)       Calls              In/Out           Time, sec.
  - - - - - - - - - - - - - - - - - - - - - - - - - - - - - - - - - - - - - - - - - - -
   1  SCRATCH           0.01 .      16/     136 .      0.0/      0.1 .       0/       0
   2  ANNI              0.00 .       0/       0 .      0.0/      0.0 .       0/       0
   3  RUNFILE          13.15 .     182/    7500 .      1.3/     54.2 .       0/       0
   4  ONEINT            1.57 .       0/    9030 .      0.0/   8167.6 .       0/       0
   5  JOBIPH            1.79 .       0/     120 .      0.0/      0.3 .       0/       0
   6  TDMFILE           1.93 .     136/     136 .      1.9/      1.9 .       0/       0
   7  ORDINT            2.03 .       1/      17 .      0.0/      4.0 .       0/       0
  - - - - - - - - - - - - - - - - - - - - - - - - - - - - - - - - - - - - - - - - - - -
   *  TOTAL            20.48 .     335/   16939 .      3.2/   8228.2 .       0/       0
  - - - - - - - - - - - - - - - - - - - - - - - - - - - - - - - - - - - - - - - - - - -
 
  II. I/O Access Patterns
  - - - - - - - - - - - - - - - - - - - -
  Unit  Name               % of random
                         Write/Read calls
  - - - - - - - - - - - - - - - - - - - -
   1  SCRATCH              0.0/  11.8
   2  ANNI                 0.0/   0.0
   3  RUNFILE             28.6/  11.0
   4  ONEINT               0.0/  98.5
   5  JOBIPH               0.0/  70.0
   6  TDMFILE             99.3/ 100.0
   7  ORDINT             100.0/  11.8
  - - - - - - - - - - - - - - - - - - - -
--
--- Stop Module: rassi at Sat Aug  8 14:29:29 2020 /rc=_RC_ALL_IS_WELL_ ---
*** files: ms_spherical.rassi.h5 xmldump
    saved to directory /home/gayverjr/OpenCAP/molcas_tests
--- Module rassi spent 6 seconds ---

.##################.
.# Happy landing! #.
.##################.

    Timing: Wall=40.61 User=208.59 System=5.05
