*******************************************************
*** WorkDir is not cleaned in parallel environment! ***
*******************************************************
   This run of MOLCAS is using the pymolcas driver

                             OPE
                             OPE          NMOL  CASOP  ENMOLC A   SO
                 OPE        NMOLC        AS  OP EN  MO LC     AS  OP
                OPENM       OL CA        SO  PE NM  OL CA     SOP EN
                OP EN      MO   LC       AS  OP ENMOL  CASO   PENMOL
                OP  EN     MO   LC       AS  OP EN     MO     LC ASO
               OP   E  NMOL  C  AS       OP  EN MO     LC     AS  OP
               OP  E   NMO   LC AS        OPEN  MO     LCASOP EN   M
               O  PEN   MO  LCA  SO
            OPE   NMO   L   CAS    OP
        OPENMOL  CASOP     ENMOL   CASOPE
     OPENMOLCA   SOPENMOLCASOPEN   MOLCASOPE
    OPENMOLCAS   OP           EN   MOL    CAS
    OPENMOLCAS       OP  ENM        O     LCA
    OPENMOLCAS    OPEN  MOLCASO     P  E  NMO
    OPENMOLCAS     OP               E  N  MOL
    OPENMOLCA   SO           PENM   O  L  CAS    OPEN    MO    LCAS
    OPENMOLCA   SOP           ENM   O  L  CAS   OP  EN  MOLC  AS   O
    OPENMOLCA   SOPE           NM      O  LCA   S      OP  EN MO
    OPENMOLC                AS         O  PEN   M      OL  CA  SOPE
    OPENMO        LCASOPE  NMOL        C  ASO   P      ENMOLC     AS
    OPE     NMO      LCA  SO     P     E   NM   OL  CA SO  PE N   MO
          OPENMOLCA            SOPE   NMO        LCAS  O    P  ENMO
     OPENMOLCASOPENMOLCASOPENMOLCASOPENMOLCA
        OPENMOLCASOPENMOLCASOPENMOLCASOPE
            OPENMOLCASOPENMOLCASOPENM
               OPENMOLCASOPENMOLCA        version: 21.06
                   OPENMOLCASO
                       OPE                tag: 24-g18de2a7

 OpenMolcas is free software; you can redistribute it and/or modify it
 under the terms of the GNU Lesser General Public License version 2.1.
 OpenMolcas is distributed in the hope that it will be useful, but it
 is provided "as is" and without any express or implied warranties.
 For more details see the full text of the license in the file
 LICENSE or in <http://www.gnu.org/licenses/>.

                 Copyright (C) The OpenMolcas Authors
           For the author list and the recommended citation,
                   consult the file CONTRIBUTORS.md

           *************************************************
           * pymolcas version py2.18                       *
           *   build 7a16d2f9e823a0c2ad601740b42a4b0e      *
           *   (after the EMIL interpreter by V. Veryazov) *
           *************************************************

configuration info
------------------
Host name: dirac.bu.edu (Linux)
C Compiler ID: GNU
C flags: -std=gnu99 -fopenmp
Fortran Compiler ID: GNU
Fortran flags: -fno-aggressive-loop-optimizations -cpp -fdefault-integer-8 -fopenmp
Definitions: _MOLCAS_;_I8_;_LINUX_
Parallel: OFF (GA=OFF)


   ----------------------------------------------------------------------
  |
  |             Project: no_shift
  |      Submitted from: /scratch/gayverjr/no_shift.1513787464
  |        Scratch area: /scratch/gayverjr/no_shift.1513787464
  |     Save outputs to: /home/gayverjr/opencap_examples
  |              Molcas: /home/qcsoftware/OpenMolcas/builds/molcas_latest
  |
  | Scratch area is NOT empty
  |
  |      MOLCAS_DRIVER = /home/qcsoftware/bin/pymolcas
  | MOLCAS_NEW_WORKDIR = YES
  |      MOLCAS_NPROCS = 16
  |      MOLCAS_SOURCE = /home/qcsoftware/OpenMolcas/Molcas_src
  |   MOLCAS_STRUCTURE = 0
  |
   ----------------------------------------------------------------------

++ ---------   Input file   ---------

&GATEWAY
Expert
Basis set
 N    / inline
      7.00   3
    24    6
               1.142000E+04
               1.712000E+03
               3.893000E+02
               1.100000E+02
               3.557000E+01
               1.254000E+01
               4.644000E+00
               1.293000E+00
               5.118000E-01
               1.787000E-01
               1.142000E+04
               1.712000E+03
               3.893000E+02
               1.100000E+02
               3.557000E+01
               1.254000E+01
               4.644000E+00
               1.293000E+00
               5.118000E-01
               1.787000E-01
               1.293000E+00
               1.787000E-01
               0.08935
               0.04468
      5.230000E-04           0.00000000             0.00000000             0.00000000             0.00000000             0.00000000
      4.045000E-03           0.00000000             0.00000000             0.00000000             0.00000000             0.00000000
      2.077500E-02           0.00000000             0.00000000             0.00000000             0.00000000             0.00000000
      8.072700E-02           0.00000000             0.00000000             0.00000000             0.00000000             0.00000000
      2.330740E-01           0.00000000             0.00000000             0.00000000             0.00000000             0.00000000
      4.335010E-01           0.00000000             0.00000000             0.00000000             0.00000000             0.00000000
      3.474720E-01           0.00000000             0.00000000             0.00000000             0.00000000             0.00000000
      4.126200E-02           0.00000000             0.00000000             0.00000000             0.00000000             0.00000000
     -8.508000E-03           0.00000000             0.00000000             0.00000000             0.00000000             0.00000000
      2.384000E-03           0.00000000             0.00000000             0.00000000             0.00000000             0.00000000
      0.00000000            -1.150000E-04           0.00000000             0.00000000             0.00000000             0.00000000
      0.00000000            -8.950000E-04           0.00000000             0.00000000             0.00000000             0.00000000
      0.00000000            -4.624000E-03           0.00000000             0.00000000             0.00000000             0.00000000
      0.00000000            -1.852800E-02           0.00000000             0.00000000             0.00000000             0.00000000
      0.00000000            -5.733900E-02           0.00000000             0.00000000             0.00000000             0.00000000
      0.00000000            -1.320760E-01           0.00000000             0.00000000             0.00000000             0.00000000
      0.00000000            -1.725100E-01           0.00000000             0.00000000             0.00000000             0.00000000
      0.00000000             1.518140E-01           0.00000000             0.00000000             0.00000000             0.00000000
      0.00000000             5.999440E-01           0.00000000             0.00000000             0.00000000             0.00000000
      0.00000000             3.874620E-01           0.00000000             0.00000000             0.00000000             0.00000000
      0.00000000             0.00000000             1.000000E+00           0.00000000             0.00000000             0.00000000
      0.00000000             0.00000000             0.00000000             1.000000E+00           0.00000000             0.00000000
      0.00000000             0.00000000             0.00000000             0.00000000             1.000                  0.00000000
      0.00000000             0.00000000             0.00000000             0.00000000             0.00000000             1.000
    12    8
               2.663000E+01
               5.948000E+00
               1.742000E+00
               5.550000E-01
               1.725000E-01
               5.550000E-01
               1.725000E-01
               0.115
               0.07667
               0.05111
               0.03407
               0.02271
      1.467000E-02           0.00000000             0.00000000             0.00000000             0.00000000             0.00000000             0.00000000             0.00000000
      9.176400E-02           0.00000000             0.00000000             0.00000000             0.00000000             0.00000000             0.00000000             0.00000000
      2.986830E-01           0.00000000             0.00000000             0.00000000             0.00000000             0.00000000             0.00000000             0.00000000
      4.984870E-01           0.00000000             0.00000000             0.00000000             0.00000000             0.00000000             0.00000000             0.00000000
      3.370230E-01           0.00000000             0.00000000             0.00000000             0.00000000             0.00000000             0.00000000             0.00000000
      0.00000000             1.000000E+00           0.00000000             0.00000000             0.00000000             0.00000000             0.00000000             0.00000000
      0.00000000             0.00000000             1.000000E+00           0.00000000             0.00000000             0.00000000             0.00000000             0.00000000
      0.00000000             0.00000000             0.00000000             1.000                  0.00000000             0.00000000             0.00000000             0.00000000
      0.00000000             0.00000000             0.00000000             0.00000000             1.000                  0.00000000             0.00000000             0.00000000
      0.00000000             0.00000000             0.00000000             0.00000000             0.00000000             1.000                  0.00000000             0.00000000
      0.00000000             0.00000000             0.00000000             0.00000000             0.00000000             0.00000000             1.000                  0.00000000
      0.00000000             0.00000000             0.00000000             0.00000000             0.00000000             0.00000000             0.00000000             1.000
     4    4
               1.654000E+00
               4.690000E-01
               0.2345
               0.11725
      1.000000E+00           0.00000000             0.00000000             0.00000000
      0.00000000             1.000000E+00           0.00000000             0.00000000
      0.00000000             0.00000000             1.000                  0.00000000
      0.00000000             0.00000000             0.00000000             1.000
     1    1
               1.093000E+00
      1.0000000
N1  0.0  0.0  0.339
End of Basis
Symmetry
x y z

&SEWARD

&SCF

&RASSCF
RAS2     = 0 1 1 0 0 5 5 0
Inactive = 3 0 0 0 2 0 0 0
Charge = -1
Spin = 2
CIROOT = 5 5 1
Symmetry = 6

>>> COPY $Project.RasOrb INPORB

&CASPT2
Imaginary = 0.1
Multistate = all
Maxiter = 100

-- ----------------------------------

--- Start Module: gateway at Mon Jul  5 21:21:16 2021 ---

()()()()()()()()()()()()()()()()()()()()()()()()()()()()()()()()()()()()()()()()()()()()()()()()()()

                                              &GATEWAY

                                   only a single process is used
                       available to each process: 20 GB of memory, 16 threads
                                             pid: 48993
()()()()()()()()()()()()()()()()()()()()()()()()()()()()()()()()()()()()()()()()()()()()()()()()()()

 ###############################################################################
 ###############################################################################
 ###                                                                         ###
 ###                                                                         ###
 ###    WARNING:  EXPERT option is ON!                                       ###
 ###                                                                         ###
 ###                                                                         ###
 ###############################################################################
 ###############################################################################

++    Symmetry information:
      ---------------------

                    --- Group Generators ---
                    Reflection in the yz-plane  
                    Reflection in the xz-plane  
                    Reflection in the xy-plane  

                    Character Table for D2h

                             E   s(yz) s(xz) C2(z) s(xy) C2(y) C2(x)   i  
                    ag       1     1     1     1     1     1     1     1  
                    b3u      1    -1     1    -1     1    -1     1    -1  x
                    b2u      1     1    -1    -1     1     1    -1    -1  y
                    b1g      1    -1    -1     1     1    -1    -1     1  xy, Rz
                    b1u      1     1     1     1    -1    -1    -1    -1  z
                    b2g      1    -1     1    -1    -1     1    -1     1  xz, Ry
                    b3g      1     1    -1    -1    -1    -1     1     1  yz, Rx
                    au       1    -1    -1     1    -1     1     1    -1  I
--


++    Basis set information:
      ----------------------


      Basis set label: N...............................................................................

      Electronic valence basis set:
      ------------------
      Associated Effective Charge   7.000000 au
      Associated Actual Charge      7.000000 au
      Nuclear Model: Point charge

      Shell  nPrim  nBasis  Cartesian Spherical Contaminant
         s      24       6        X                  
         p      12       8        X                  
         d       4       4                 X         
         f       1       1                 X         
--


++    Molecular structure info:
      -------------------------

                    ************************************************ 
                    **** Cartesian Coordinates / Bohr, Angstrom **** 
                    ************************************************ 

     Center  Label                x              y              z                     x              y              z
        1      N1               0.000000       0.000000       0.339000              0.000000       0.000000       0.179391
        2      N1               0.000000       0.000000      -0.339000              0.000000       0.000000      -0.179391
--


            Nuclear Potential Energy             72.27138643 au

--- Stop Module: gateway at Mon Jul  5 21:21:17 2021 /rc=_RC_ALL_IS_WELL_ ---
*** files: xmldump
    saved to directory /home/gayverjr/opencap_examples

--- Start Module: seward at Mon Jul  5 21:21:17 2021 ---

()()()()()()()()()()()()()()()()()()()()()()()()()()()()()()()()()()()()()()()()()()()()()()()()()()

                                              &SEWARD

                                   only a single process is used
                       available to each process: 20 GB of memory, 16 threads
                                             pid: 49014
()()()()()()()()()()()()()()()()()()()()()()()()()()()()()()()()()()()()()()()()()()()()()()()()()()

               SEWARD will generate:
                  Multipole Moment integrals up to order  2
                  Kinetic Energy integrals
                  Nuclear Attraction integrals (point charge)
                  One-Electron Hamiltonian integrals
                  Velocity integrals
                  Orbital angular momentum around ( 0.0000  0.0000  0.0000 )
                  Velocity quadrupole around ( 0.0000  0.0000  0.0000 )
                  Two-Electron Repulsion integrals

                   Integrals are discarded if absolute value <: 0.10E-13
                   Integral cutoff threshold is set to       <: 0.10E-15

                    Unitary symmetry adaptation


            Nuclear Potential Energy             72.27138643 au


      Basis set specifications :
      Symmetry species         ag   b3u  b2u  b1g  b1u  b2g  b3g  au 
      Basis functions           24   14   14    5   24   14   14    5


  Input file to MOLDEN was generated!

--- Stop Module: seward at Mon Jul  5 21:21:21 2021 /rc=_RC_ALL_IS_WELL_ ---
*** files: no_shift.GssOrb no_shift.guessorb.h5 no_shift.guessorb.molden xmldump
    saved to directory /home/gayverjr/opencap_examples
--- Module seward spent 4 seconds ---

*** symbolic link created: INPORB -> no_shift.GssOrb
--- Start Module: scf at Mon Jul  5 21:21:21 2021 ---

()()()()()()()()()()()()()()()()()()()()()()()()()()()()()()()()()()()()()()()()()()()()()()()()()()

                                                &SCF

                                   only a single process is used
                       available to each process: 20 GB of memory, 16 threads
                                             pid: 49105
()()()()()()()()()()()()()()()()()()()()()()()()()()()()()()()()()()()()()()()()()()()()()()()()()()

++    Input section:
      --------------

      Header of the integral files:
      
       Integrals generated by Gateway/Seward, Mon Jul  5 21:21:17 2021


      Cartesian coordinates in Angstrom:
      -----------------------------------------------------
      No.  Label        X            Y            Z        
      -----------------------------------------------------
       1   N1         0.00000000   0.00000000   0.17939107
       2   N1         0.00000000   0.00000000  -0.17939107
      -----------------------------------------------------
      Nuclear repulsion energy =   72.27138643
--

++    Orbital specifications:
      -----------------------

      Symmetry species               1   2   3   4   5   6   7   8
                                    ag b3u b2u b1g b1u b2g b3g  au
      Frozen orbitals                0   0   0   0   0   0   0   0
      Occupied orbitals              3   1   1   0   2   0   0   0
      Secondary orbitals            21  13  13   5  22  14  14   5
      Deleted orbitals               0   0   0   0   0   0   0   0
      Total number of orbitals      24  14  14   5  24  14  14   5
      Number of basis functions     24  14  14   5  24  14  14   5
--

      Molecular charge                           0.000

++    Optimization specifications:
      ----------------------------

      SCF Algorithm: Conventional
      Minimized density differences are used
      Number of density matrices in core                5
      Maximum number of NDDO SCF iterations           400
      Maximum number of HF SCF iterations             400
      Threshold for SCF energy change            0.10E-08
      Threshold for density matrix               0.10E-03
      Threshold for Fock matrix                  0.15E-03
      Threshold for linear dependence            0.10E-08
      Threshold at which DIIS is turned on       0.15E+00
      Threshold at which QNR/C2DIIS is turned on 0.75E-01
      Threshold for Norm(delta) (QNR/C2DIIS)     0.20E-04
      DIIS extrapolation of the SCF procedure
      All orbitals punched on: SCFORB
--

      Input vectors read from INPORB
      Orbital file label: *Guess orbitals


++ Convergence information
                                   SCF        iterations: Energy and convergence statistics

Iter     Tot. SCF        One-elec.       Two-elec.     Energy      Max Dij or  Max Fij      DNorm      TNorm      AccCon     Time
         Energy          Energy          Energy        Change      Delta Norm                                                in Sec.
   1   -92.096479033  -243.358363460    78.990497997   0.00E+00    0.39E+00*   0.14E+01*    0.11E+02   0.13E+03   None         0.
   2   -94.643050203  -259.919013451    93.004576817  -0.25E+01*   0.30E+00*   0.30E+00*    0.22E+04   0.13E+03   EDIIS        0.
   3   -94.741296623  -238.709463636    71.696780582  -0.98E-01*   0.22E+00*   0.14E+00*    0.74E+03   0.12E+03   EDIIS        0.
   4   -95.251527224  -250.459035407    82.936121752  -0.51E+00*   0.24E+00*   0.49E-01*    0.15E+03   0.13E+03   EDIIS        0.
   5   -95.286918691  -248.103990285    80.545685163  -0.35E-01*   0.87E-01*   0.28E-01*    0.71E+02   0.13E+03   EDIIS        0.
   6   -95.299682795  -248.714204532    81.143135306  -0.13E-01*   0.78E-01*   0.16E-01*    0.11E+03   0.13E+03   c2DIIS       0.
   7   -95.304492290  -248.086586122    80.510707401  -0.48E-02*   0.17E-01*   0.21E-01*    0.37E+02   0.13E+03   c2DIIS       0.
   8   -95.307760279  -247.910294219    80.331147510  -0.33E-02*   0.94E-02*   0.25E-02*    0.20E+02   0.13E+03   QNRc2DIIS    0.
   9   -95.307840696  -247.823685133    80.244458007  -0.80E-04*   0.92E-02*   0.89E-03*    0.35E+01   0.13E+03   QNRc2DIIS    0.
  10   -95.307879165  -247.784673562    80.205407966  -0.38E-04*   0.23E-02*   0.39E-03*    0.74E+00   0.13E+03   QNRc2DIIS    0.
  11   -95.307883323  -247.777600619    80.198330866  -0.42E-05*   0.20E-02*   0.24E-03*    0.85E-01   0.13E+03   QNRc2DIIS    0.
  12   -95.307885141  -247.777815518    80.198543946  -0.18E-05*   0.86E-04*   0.17E-04     0.49E-01   0.13E+03   QNRc2DIIS    0.
  13   -95.307885146  -247.777647748    80.198376171  -0.55E-08*   0.15E-04    0.24E-05     0.12E-01   0.13E+03   QNRc2DIIS    0.
  14   -95.307885147  -247.777683739    80.198412161  -0.15E-09    0.22E-05    0.44E-06     0.20E-02   0.13E+03   QNRc2DIIS    0.

       Convergence after 14 Macro Iterations
--

 *****************************************************************************************************************************
 *                                                                                                                           *
 *                                             SCF/KS-DFT Program, Final results                                             *
 *                                                                                                                           *
 *                                                                                                                           *
 *                                                                                                                           *
 *                                                       Final Results                                                       *
 *                                                                                                                           *
 *****************************************************************************************************************************

::    Total SCF energy                                -95.3078851465
      One-electron energy                            -247.7776837386
      Two-electron energy                              80.1984121613
      Nuclear repulsion energy                         72.2713864307
      Kinetic energy (interpolated)                   122.8170619883
      Virial theorem                                    0.7760150227
      Total spin, S(S+1)                                0.0000000000
      Total spin, S                                     0.0000000000
      Max non-diagonal density matrix element           0.0000032203
      Max non-diagonal Fock matrix element              0.0000002500


      All orbitals with orbital energies smaller than  E(LUMO)+0.5 are printed

++    Molecular orbitals:
      -------------------

      Title: SCF orbitals

      Molecular orbitals for symmetry species 1: ag 

          Orbital            1         2         3         4         5         6         7         8         9        10    
          Energy          -19.4016   -1.9589   -0.1976    0.0528    0.0901    0.1248    0.2335    0.2356    0.2700    0.4890
          Occ. No.          2.0000    2.0000    2.0000    0.0000    0.0000    0.0000    0.0000    0.0000    0.0000    0.0000

        1 N1     1s         1.0074    0.0039   -0.0357   -0.0140   -0.0530    0.0173   -0.0000    0.0139    0.0245   -0.1186
        2 N1     1s         0.2808   -1.2524   -0.6680   -0.0693   -0.6426    0.0060    0.0000    0.3080   -0.2193   -0.8167
        3 N1     1s        -0.2995   -0.4844   -0.0047    0.0251    0.1570    0.0709   -0.0000   -0.2174   -0.0431    0.2429
        4 N1     1s         0.4156    2.3602    0.6768   -2.0751    7.6102    2.9770    0.0000   13.2245    1.7623    9.9508
        5 N1     1s        -0.3541   -1.0566   -0.2581    0.1585   -1.0601   -0.8092   -0.0000   -2.8885   -0.4804   -4.0391
        6 N1     1s         0.0192    0.0129    0.7606    1.4975   -2.7063   -0.7685   -0.0000   -3.4870   -0.4803   -0.9921
        7 N1     2pz       -0.3451   -0.4578    0.4432    0.0903    0.7844    0.3659   -0.0000   -0.9769    0.2439    0.7858
        8 N1     2pz       -0.1465   -0.6852   -0.2717   -0.0156   -0.1938   -0.1361    0.0000    0.2518   -0.2446   -0.0042
        9 N1     2pz        1.3065   -0.4889   -0.7886   -3.2329    1.6103    4.3199    0.0000   12.3754    6.9901   -5.5095
       10 N1     2pz       -0.1047    7.6138    2.8167    1.5584   30.1590   -5.1022    0.0000   31.4477  -23.7679   76.8058
       11 N1     2pz        1.4967   -4.1966   -3.0497  -22.4924  -15.2556   38.1849    0.0000   22.8498   78.8660 -118.7328
       12 N1     2pz       -1.2452    3.7156    1.8806   37.3381   35.9769  -67.8589   -0.0000  -15.3230 -137.8363  162.3452
       13 N1     2pz        0.6427   -2.1409   -0.0914  -47.1913  -36.4114   85.1825    0.0000   21.7600  128.0531 -111.9552
       14 N1     2pz       -0.1616    0.6356   -0.1347   37.4354   13.4739  -45.0996   -0.0000  -13.7324  -49.2484   34.1156
       15 N1     3d0        0.0744    0.1222    0.0428   -0.0028    0.0241    0.0113   -0.0000   -0.0151    0.0402   -0.0128
       16 N1     3d0        0.1252    0.3680    0.1637    0.0250    0.1409    0.0482    0.0000   -0.1052    0.0716    0.1216
       17 N1     3d0       -0.1459   -0.1431   -0.0026    0.1088   -0.1603   -0.1190   -0.0000   -0.8244   -0.1463   -0.1865
       18 N1     3d0       -0.1688   -0.6378   -0.0439    1.2060   -3.7464   -1.3071   -0.0000   -7.3862   -0.8288   -5.0183
       19 N1     3d2+      -0.0000   -0.0000    0.0000    0.0000    0.0000    0.0000    0.0107   -0.0000    0.0000    0.0000
       20 N1     3d2+       0.0000    0.0000    0.0000    0.0000    0.0000   -0.0000    0.1779   -0.0000    0.0000    0.0000
       21 N1     3d2+      -0.0000   -0.0000   -0.0000   -0.0000   -0.0000    0.0000   -0.3463    0.0000   -0.0000   -0.0000
       22 N1     3d2+       0.0000    0.0000    0.0000    0.0000    0.0000   -0.0000    0.9026   -0.0000    0.0000    0.0000
       23 N1     4f0       -0.0235   -0.0462   -0.0153    0.0000   -0.0071   -0.0017    0.0000    0.0060   -0.0124    0.0002
       24 N1     4f2+      -0.0000   -0.0000    0.0000    0.0000    0.0000   -0.0000   -0.0010    0.0000   -0.0000    0.0000

      Molecular orbitals for symmetry species 2: b3u

          Orbital            1         2         3         4         5         6    
          Energy           -2.3148    0.0102    0.0587    0.1652    0.3457    0.4169
          Occ. No.          2.0000    0.0000    0.0000    0.0000    0.0000    0.0000

        1 N1     2px       -1.8365   -0.2007    0.2017   -0.2747    0.3778    0.0413
        2 N1     2px        0.7652    0.0986   -0.0433    0.2029   -0.0099    0.0597
        3 N1     2px        0.4666   -0.1321   -1.1288   -1.7504   -3.9674   -1.7817
        4 N1     2px        0.4064    1.0785    4.0126    7.9643   14.8196    6.3630
        5 N1     2px       -0.5932   -2.2650   -8.9168  -17.1748  -31.5502   -6.3822
        6 N1     2px        0.5090    3.5831   12.7475   24.7013   37.5067    2.8120
        7 N1     2px       -0.2539   -3.3142  -12.2886  -19.9263  -23.2229   -0.5234
        8 N1     2px        0.0597    1.9185    5.4379    6.4703    6.0393   -0.0240
        9 N1     3d1+       0.0384    0.0084   -0.0059    0.0149   -0.0078    0.0171
       10 N1     3d1+      -0.1649   -0.0059    0.0567    0.0622    0.2029    0.5486
       11 N1     3d1+       0.2126    0.0151   -0.1166   -0.1553   -0.4574   -1.9479
       12 N1     3d1+      -0.1344   -0.0716    0.1711    0.1155    0.7979    6.3922
       13 N1     4f1+       0.0506    0.0040   -0.0118   -0.0053   -0.0334   -0.0504
       14 N1     4f3+       0.0000   -0.0000   -0.0000   -0.0000   -0.0000   -0.0000

      Molecular orbitals for symmetry species 3: b2u

          Orbital            1         2         3         4         5         6    
          Energy           -2.3148    0.0102    0.0587    0.1652    0.3457    0.4169
          Occ. No.          2.0000    0.0000    0.0000    0.0000    0.0000    0.0000

        1 N1     2py       -1.8365   -0.2007    0.2017   -0.2747    0.3778    0.0413
        2 N1     2py        0.7652    0.0986   -0.0433    0.2029   -0.0099    0.0597
        3 N1     2py        0.4666   -0.1321   -1.1288   -1.7504   -3.9674   -1.7817
        4 N1     2py        0.4064    1.0785    4.0126    7.9643   14.8196    6.3630
        5 N1     2py       -0.5932   -2.2650   -8.9168  -17.1748  -31.5502   -6.3822
        6 N1     2py        0.5090    3.5831   12.7475   24.7013   37.5067    2.8120
        7 N1     2py       -0.2539   -3.3142  -12.2886  -19.9263  -23.2229   -0.5234
        8 N1     2py        0.0597    1.9185    5.4379    6.4703    6.0393   -0.0240
        9 N1     3d1-       0.0384    0.0084   -0.0059    0.0149   -0.0078    0.0171
       10 N1     3d1-      -0.1649   -0.0059    0.0567    0.0622    0.2029    0.5486
       11 N1     3d1-       0.2126    0.0151   -0.1166   -0.1553   -0.4574   -1.9479
       12 N1     3d1-      -0.1344   -0.0716    0.1711    0.1155    0.7979    6.3922
       13 N1     4f3-      -0.0000    0.0000    0.0000    0.0000    0.0000    0.0000
       14 N1     4f1-       0.0506    0.0040   -0.0118   -0.0053   -0.0334   -0.0504

      Molecular orbitals for symmetry species 4: b1g

          Orbital            1    
          Energy            0.2335
          Occ. No.          0.0000

        1 N1     3d2-       0.0107
        2 N1     3d2-       0.1779
        3 N1     3d2-      -0.3463
        4 N1     3d2-       0.9026
        5 N1     4f2-      -0.0010

      Molecular orbitals for symmetry species 5: b1u

          Orbital            1         2         3         4         5         6         7         8         9    
          Energy          -16.5647   -0.9380    0.0263    0.0821    0.1610    0.2058    0.3937    0.4059    0.4114
          Occ. No.          2.0000    2.0000    0.0000    0.0000    0.0000    0.0000    0.0000    0.0000    0.0000

        1 N1     1s         1.0143   -0.0366   -0.0028    0.0115   -0.0024    0.0039    0.0267   -0.0000   -0.0039
        2 N1     1s        -0.2298   -1.1072   -0.0964    0.1945   -0.0771    0.2069    0.3406   -0.0000   -0.1372
        3 N1     1s         0.1536   -0.0181    0.0106    0.0352   -0.1570   -0.1537    0.0683    0.0000   -0.3456
        4 N1     1s         3.2386    5.1526   96.9306  231.0537  150.9033 -348.7521  978.3697   -0.0000  617.6915
        5 N1     1s         8.6837    8.1899   46.9879   81.7136-2285.2548-1717.1314 -307.1851    0.0000-4890.4160
        6 N1     1s        -3.3357   -3.9226  245.5368  488.8559 5524.9399 2485.5958  986.4959   -0.0000 4843.6202
        7 N1     2pz       -0.1443   -0.6934   -0.0698    0.0979   -0.0309    0.1844    0.1435   -0.0000   -0.0451
        8 N1     2pz        0.0858    0.0600   -0.0453   -0.1031    0.0439    0.2385   -0.3492    0.0000    0.0606
        9 N1     2pz       -0.4068   -0.8209  -16.9287  -40.3816  -30.7016   58.1519 -173.2606    0.0000 -120.3364
       10 N1     2pz       -0.2393    0.1359    4.9255   12.6178   62.7582   18.2174   74.1378   -0.0000  170.6975
       11 N1     2pz       -0.8198   -1.0899  -10.3584  -22.2702  276.6659  229.2232  -30.5018   -0.0000  503.9280
       12 N1     2pz        0.4159    0.6170   -4.0173   -6.1462 -410.4957 -246.9676  -14.7043    0.0000 -446.5797
       13 N1     2pz        0.0043   -0.0530  -14.1041  -28.8897  -95.1133   -8.0930  -44.7736    0.0000  -48.3445
       14 N1     2pz        0.0034    0.0164    4.7261    7.9399   10.4715   -4.3361    7.9790   -0.0000    1.7756
       15 N1     3d0        0.0119   -0.0006    0.0014    0.0010   -0.0169   -0.0163    0.0014    0.0000   -0.0342
       16 N1     3d0        0.0020    0.0054   -0.0359   -0.1059   -0.2214    0.0246   -0.4256    0.0000   -0.5331
       17 N1     3d0        0.0063    0.0288    0.4381    1.0446    1.3982   -1.0787    4.5468   -0.0000    4.2702
       18 N1     3d0        0.0466    0.0459    0.6834    1.6279   -5.1139   -6.5552    5.7452   -0.0000   -8.3193
       19 N1     3d2+       0.0000    0.0000    0.0000    0.0000    0.0000    0.0000    0.0000    0.0746    0.0000
       20 N1     3d2+       0.0000    0.0000    0.0000    0.0000    0.0000    0.0000    0.0000    0.9005    0.0000
       21 N1     3d2+       0.0000   -0.0000   -0.0000   -0.0000   -0.0000   -0.0000   -0.0000   -2.8436    0.0000
       22 N1     3d2+      -0.0000   -0.0000    0.0000    0.0000    0.0000    0.0000    0.0000    8.4091    0.0000
       23 N1     4f0       -0.0032    0.0045    0.0038    0.0064    0.0290    0.0033    0.0333   -0.0000    0.0692
       24 N1     4f2+      -0.0000   -0.0000   -0.0000   -0.0000   -0.0000   -0.0000   -0.0000   -0.0905   -0.0000

      Molecular orbitals for symmetry species 6: b2g

          Orbital            1         2         3         4    
          Energy            0.0489    0.1202    0.2214    0.3659
          Occ. No.          0.0000    0.0000    0.0000    0.0000

        1 N1     2px        0.0201   -0.0598    0.1955   -0.3174
        2 N1     2px        0.6375    0.9399    1.7414    2.1442
        3 N1     2px      -18.8551  -31.1816  -48.5269  -78.3286
        4 N1     2px       55.2096   79.5440  157.3143  224.7995
        5 N1     2px      -65.5170 -109.7978 -171.4611 -268.5490
        6 N1     2px       95.8872  158.9189  243.5135  328.6811
        7 N1     2px     -105.0116 -167.6079 -211.5317 -231.6014
        8 N1     2px       66.4147   77.7783   78.0194   72.4424
        9 N1     3d1+      -0.0019   -0.0111    0.0078   -0.0398
       10 N1     3d1+      -0.3106   -0.4951   -0.7927   -1.2170
       11 N1     3d1+       1.2364    1.9815    3.2302    4.9012
       12 N1     3d1+      -2.1452   -2.1948   -7.0474   -8.4843
       13 N1     4f1+       0.0060    0.0100    0.0141    0.0266
       14 N1     4f3+      -0.0000   -0.0000   -0.0000   -0.0000

      Molecular orbitals for symmetry species 7: b3g

          Orbital            1         2         3         4    
          Energy            0.0489    0.1202    0.2214    0.3659
          Occ. No.          0.0000    0.0000    0.0000    0.0000

        1 N1     2py        0.0201   -0.0598    0.1955   -0.3174
        2 N1     2py        0.6375    0.9399    1.7414    2.1442
        3 N1     2py      -18.8551  -31.1816  -48.5269  -78.3286
        4 N1     2py       55.2096   79.5440  157.3143  224.7995
        5 N1     2py      -65.5170 -109.7978 -171.4611 -268.5490
        6 N1     2py       95.8872  158.9189  243.5135  328.6811
        7 N1     2py     -105.0116 -167.6079 -211.5317 -231.6014
        8 N1     2py       66.4147   77.7783   78.0194   72.4424
        9 N1     3d1-      -0.0019   -0.0111    0.0078   -0.0398
       10 N1     3d1-      -0.3106   -0.4951   -0.7927   -1.2170
       11 N1     3d1-       1.2364    1.9815    3.2302    4.9012
       12 N1     3d1-      -2.1452   -2.1948   -7.0474   -8.4843
       13 N1     4f3-       0.0000    0.0000    0.0000    0.0000
       14 N1     4f1-       0.0060    0.0100    0.0141    0.0266

      Molecular orbitals for symmetry species 8: au 

          Orbital            1    
          Energy            0.4059
          Occ. No.          0.0000

        1 N1     3d2-       0.0746
        2 N1     3d2-       0.9005
        3 N1     3d2-      -2.8436
        4 N1     3d2-       8.4091
        5 N1     4f2-      -0.0905
--


++    Molecular charges:
      ------------------

      Mulliken charges per centre and basis function type
      ---------------------------------------------------

                N1    
      1s       2.3761
      2px      1.0157
      2pz      2.5041
      2py      1.0157
      3d2+    -0.0000
      3d1+    -0.0060
      3d0      0.1141
      3d1-    -0.0060
      3d2-     0.0000
      4f3+     0.0000
      4f2+    -0.0000
      4f1+    -0.0097
      4f0      0.0057
      4f1-    -0.0097
      4f2-     0.0000
      4f3-    -0.0000
      Total    7.0000

      N-E     -0.0000

      Total electronic charge=   14.000000

      Total            charge=   -0.000000
--


++    Molecular properties:
      ---------------------

      Charge (e):
                      =   -0.0000
      Dipole Moment (Debye):
      Origin of the operator (Ang)=    0.0000    0.0000    0.0000
                   X=  0.0000E+00               Y=  0.0000E+00               Z=  0.0000E+00           Total=  0.0000E+00
      Quadrupole Moment (Debye*Ang):
      Origin of the operator (Ang)=    0.0000    0.0000    0.0000
                  XX= -1.8349E+01              XY=  0.0000E+00              XZ=  0.0000E+00              YY= -1.8349E+01
                  YZ=  0.0000E+00              ZZ= -2.3880E+01
      In traceless form (Debye*Ang)
                  XX=  2.7654E+00              XY=  0.0000E+00              XZ=  0.0000E+00              YY=  2.7654E+00
                  YZ=  0.0000E+00              ZZ= -5.5307E+00
--


  Input file to MOLDEN was generated!

 ###############################################################################
 ###############################################################################
 ###                                                                         ###
 ###                                                                         ###
 ###    WARNING: RunFile label nBas                                          ###
 ###    was used       72 times                                              ###
 ###                                                                         ###
 ###                                                                         ###
 ###############################################################################
 ###############################################################################
--- Stop Module: scf at Mon Jul  5 21:21:22 2021 /rc=_RC_ALL_IS_WELL_ ---
*** files: no_shift.scf.molden no_shift.ScfOrb no_shift.scf.h5 xmldump
    saved to directory /home/gayverjr/opencap_examples
--- Module scf spent 1 second ---

*** symbolic link created: INPORB -> no_shift.ScfOrb
--- Start Module: rasscf at Mon Jul  5 21:21:22 2021 ---

()()()()()()()()()()()()()()()()()()()()()()()()()()()()()()()()()()()()()()()()()()()()()()()()()()

                                              &RASSCF

                                   only a single process is used
                       available to each process: 20 GB of memory, 16 threads
                                             pid: 49144
()()()()()()()()()()()()()()()()()()()()()()()()()()()()()()()()()()()()()()()()()()()()()()()()()()


      Header of the ONEINT file:
      --------------------------
      
      Integrals generated by Gateway/Seward, Mon Jul  5 21:21:17 2021


      OrdInt status: non-squared


      Cartesian coordinates in Angstrom:
      -----------------------------------------------------
      No.  Label        X            Y            Z        
      -----------------------------------------------------
       1   N1         0.00000000   0.00000000   0.17939107
       2   N1         0.00000000   0.00000000  -0.17939107
      -----------------------------------------------------
      Nuclear repulsion energy =   72.27138643

++    Wave function specifications:
      -----------------------------

      Number of closed shell electrons          10
      Number of electrons in active shells       5
      Max number of holes in RAS1 space          0
      Max nr of electrons in RAS3 space          0
      Number of inactive orbitals                5
      Number of active orbitals                 12
      Number of secondary orbitals              97
      Spin quantum number                      0.5
      State symmetry                             6
--

++    Orbital specifications:
      -----------------------

      Symmetry species                           1   2   3   4   5   6   7   8
                                                ag b3u b2u b1g b1u b2g b3g  au
      Frozen orbitals                            0   0   0   0   0   0   0   0
      Inactive orbitals                          3   0   0   0   2   0   0   0
      Active orbitals                            0   1   1   0   0   5   5   0
      RAS1 orbitals                              0   0   0   0   0   0   0   0
      RAS2 orbitals                              0   1   1   0   0   5   5   0
      RAS3 orbitals                              0   0   0   0   0   0   0   0
      Secondary orbitals                        21  13  13   5  22   9   9   5
      Deleted orbitals                           0   0   0   0   0   0   0   0
      Number of basis functions                 24  14  14   5  24  14  14   5
--

++    CI expansion specifications:
      ----------------------------

      Number of CSFs                          2375
      Number of determinants                  3890
      Number of root(s) required                 5
      Root chosen for geometry opt.              5
      CI roots used                              1     2     3     4     5
      weights                                0.200 0.200 0.200 0.200 0.200
      highest root included in the CI            5
      max. size of the explicit Hamiltonian    200
--

++    Optimization specifications:
      ----------------------------

      RASSCF algorithm: Conventional
      Maximum number of macro iterations       200
      Maximum number of SX iterations          100
      Threshold for RASSCF energy            0.100E-07
      Threshold for max MO rotation          0.100E+00
      Threshold for max BLB element          0.100E-03
      Level shift parameter                  0.500E+00
      Make Quasi-Newton update
--

      Orbitals from runfile: scf orbitals
      The MO-coefficients are taken from scf orbitals on runfile

      Total molecular charge   -1.00

      ************************************************************************************************************************
      *                                                                                                                      *
      *                                            Wave function control section                                             *
      *                                                                                                                      *
      ************************************************************************************************************************


                                         RASSCF iterations: Energy and convergence statistics
                                         ----------------------------------------------------

      Iter CI   SX   CI       RASSCF       Energy    max ROT     max BLB   max BLB  Level Ln srch  Step   QN   Walltime
          iter iter root      energy       change     param      element    value   shift minimum  type update hh:mm:ss
 Nr of preliminary CI iterations:   3
 ###############################################################################
 ###############################################################################
 ###                                                                         ###
 ###                                                                         ###
 ###    WARNING: Problems in orbital optimization.                           ###
 ###                                                                         ###
 ###                                                                         ###
 ###############################################################################
 ###############################################################################
  Warning: In symmetry  7, orbital p=   1 has diagonal density matrix element D(p,p) close to zero. D(p,p)=  0.160544D-06
 ###############################################################################
 ###############################################################################
 ###                                                                         ###
 ###                                                                         ###
 ###    WARNING: Large orbital rotation.                                     ###
 ###                                                                         ###
 ###                                                                         ###
 ###############################################################################
 ###############################################################################
      Molecular orbital   3 of symmetry 7 MO space 2  weight is    0.491317
        1   1    8    0   -95.04254011    0.00E+00   0.40E+00*   3   5 1  0.39E-01*  0.31   0.00    SX    NO    0:00:00
 ###############################################################################
 ###############################################################################
 ###                                                                         ###
 ###                                                                         ###
 ###    WARNING: Problems in orbital optimization.                           ###
 ###                                                                         ###
 ###                                                                         ###
 ###############################################################################
 ###############################################################################
  Warning: In symmetry  7, orbital p=   1 has diagonal density matrix element D(p,p) close to zero. D(p,p)=  0.536702D-06
        2   3   19    0   -95.04946322   -0.69E-02*  0.15E+00*   3   5 1  0.31E-01*  0.31   0.00    SX    NO    0:00:00
        3   3   20    0   -95.05432295   -0.49E-02* -0.21E+00*   3   5 1  0.22E-01*  0.30   0.00    SX    NO    0:00:00
        4   3   19    0   -95.05533756   -0.10E-02*  0.25E+00*   3   5 1  0.16E-01*  0.30   0.00    SX    NO    0:00:00
        5   3   19    0   -95.05598802   -0.65E-03*  0.18E+00*   3   5 1  0.12E-01*  0.30   2.50    LS   YES    0:00:00
        6   3   17    0   -95.05634007   -0.35E-03*  0.15E+00*   3   5 1  0.96E-02*  0.30   2.50    LS   YES    0:00:00
        7   3   18    0   -95.05654794   -0.21E-03* -0.13E+00*   3   5 1  0.72E-02*  0.30   2.50    QN   YES    0:00:00
        8   3   15    0   -95.05678839   -0.24E-03* -0.94E-01    3   5 1  0.36E-02*  0.30   2.02    LS   YES    0:00:00
        9   3   20    0   -95.05686473   -0.76E-04*  0.60E-01    3   8 1 -0.26E-02*  0.30   1.39    QN   YES    0:00:00
       10   3   14    0   -95.05693210   -0.67E-04*  0.70E-01    3   8 1 -0.21E-02*  0.30   2.50    LS   YES    0:00:00
       11   3   22    0   -95.05697633   -0.44E-04*  0.79E-01    3   5 1 -0.14E-02*  0.30   1.69    QN   YES    0:00:00
       12   3   22    0   -95.05701093   -0.35E-04*  0.72E-01    3   5 1 -0.13E-02*  0.30   2.23    LS   YES    0:00:00
       13   3   22    0   -95.05702520   -0.14E-04*  0.98E-01    3   5 1 -0.12E-02*  0.30   1.37    QN   YES    0:00:00
       14   4   23    0   -95.05704712   -0.22E-04*  0.33E+00*   3   5 1 -0.86E-03*  0.30   2.50    QN   YES    0:00:00
       15   4   23    0   -95.05710270   -0.56E-04*  0.32E+00*   3   8 1  0.14E-02*  0.30   2.20    QN   YES    0:00:00
       16   3   21    0   -95.05713973   -0.37E-04*  0.21E+00*   3   8 1  0.19E-02*  0.30   1.78    QN   YES    0:00:00
       17   3   18    0   -95.05715935   -0.20E-04* -0.15E+00*   3   8 1  0.19E-02*  0.30   2.04    QN   YES    0:00:00
       18   3   20    0   -95.05717443   -0.15E-04* -0.12E+00*   3   8 1  0.15E-02*  0.30   2.19    LS   YES    0:00:00
       19   3   18    0   -95.05718028   -0.58E-05*  0.31E-01    3   6 1 -0.12E-02*  0.30   1.47    QN   YES    0:00:00
       20   3   20    0   -95.05718854   -0.83E-05*  0.38E-01    3   6 1 -0.82E-03*  0.30   2.50    LS   YES    0:00:00
       21   3   20    0   -95.05719387   -0.53E-05* -0.30E-01    3   6 1 -0.30E-03*  0.30   1.47    QN   YES    0:00:00
       22   3   18    0   -95.05719803   -0.42E-05* -0.25E-01    3   8 1 -0.30E-03*  0.30   1.94    LS   YES    0:00:00
       23   3   17    0   -95.05719930   -0.13E-05*  0.24E-01    3   8 1 -0.51E-03*  0.30   1.14    QN   YES    0:00:00
       24   3   18    0   -95.05720115   -0.18E-05*  0.10E+00*   3   8 1 -0.41E-03*  0.30   2.50    QN   YES    0:00:00
       25   4   16    0   -95.05720642   -0.53E-05*  0.61E-01    3   6 1  0.31E-03*  0.30   1.80    LS   YES    0:00:00
       26   3   18    0   -95.05720774   -0.13E-05*  0.36E-01    3   6 1  0.32E-03*  0.30   1.39    QN   YES    0:00:00
       27   3   17    0   -95.05720911   -0.14E-05* -0.44E-01    3   9 1  0.26E-03*  0.30   2.50    LS   YES    0:00:00
       28   3   13    0   -95.05720989   -0.78E-06* -0.11E-01    3   8 1  0.26E-03*  0.30   1.30    QN   YES    0:00:00
       29   3   16    0   -95.05721050   -0.61E-06* -0.70E-02    3   8 1  0.15E-03*  0.30   1.68    LS   YES    0:00:00
       30   3   16    0   -95.05721062   -0.12E-06*  0.62E-02    3   4 1  0.10E-03*  0.30   1.04    QN   YES    0:00:00
       31   2   15    0   -95.05721074   -0.12E-06*  0.71E-02    3   4 1  0.77E-04   0.30   2.17    LS   YES    0:00:00
       32   2   15    0   -95.05721079   -0.47E-07* -0.39E-02    3   4 1  0.46E-04   0.30   1.02    QN   YES    0:00:00
       33   2   15    0   -95.05721081   -0.24E-07* -0.51E-02    3   4 1  0.31E-04   0.30   2.34    LS   YES    0:00:00
       34   2   15    0   -95.05721082   -0.12E-07*  0.27E-02    3   6 1 -0.31E-04   0.30   1.03    QN   YES    0:00:00
       35   1   14    0   -95.05721084   -0.14E-07*  0.41E-02    3   6 1 -0.19E-04   0.30   2.50    LS   YES    0:00:00
       36   2   14    0   -95.05721085   -0.11E-07* -0.35E-02    3   4 1 -0.17E-04   0.30   1.36    QN   YES    0:00:00
       37   2   10    0   -95.05721086   -0.94E-08   0.91E-02    3   4 1 -0.25E-04   0.30   2.50    QN   YES    0:00:00
      Convergence after 37 iterations
       38   3   10    0   -95.05721088   -0.17E-07*  0.91E-02    3   4 1 -0.30E-04   0.30   2.50    QN   YES    0:00:00

      ************************************************************************************************************************
                                                      Wave function printout:
                       occupation of active orbitals, and spin coupling of open shells (u,d: Spin up or down)
      ************************************************************************************************************************

      Note: transformation to natural orbitals
      has been made, which may change the order of the CSFs.

      printout of CI-coefficients larger than  0.05 for root  1
      energy=     -95.264794
      conf/sym  2 3 66666 77777     Coeff  Weight
             1  2 2 u0000 00000  -0.94499 0.89300
             7  2 2 00u00 00000  -0.10722 0.01150
            23  2 2 000u0 00000  -0.30009 0.09005

      printout of CI-coefficients larger than  0.05 for root  2
      energy=     -95.198255
      conf/sym  2 3 66666 77777     Coeff  Weight
             1  2 2 u0000 00000   0.20534 0.04216
             2  2 2 0u000 00000   0.80936 0.65506
             7  2 2 00u00 00000  -0.37578 0.14121
            23  2 2 000u0 00000  -0.36036 0.12986
            65  2 2 0000u 00000  -0.17355 0.03012

      printout of CI-coefficients larger than  0.05 for root  3
      energy=     -95.103165
      conf/sym  2 3 66666 77777     Coeff  Weight
             1  2 2 u0000 00000   0.18036 0.03253
             2  2 2 0u000 00000  -0.57329 0.32866
             7  2 2 00u00 00000  -0.56977 0.32464
            23  2 2 000u0 00000  -0.40514 0.16414
            65  2 2 0000u 00000  -0.38532 0.14847

      printout of CI-coefficients larger than  0.05 for root  4
      energy=     -94.963790
      conf/sym  2 3 66666 77777     Coeff  Weight
             1  2 2 u0000 00000  -0.16814 0.02827
             2  2 2 0u000 00000   0.10977 0.01205
             7  2 2 00u00 00000  -0.27099 0.07344
            23  2 2 000u0 00000   0.72301 0.52274
            65  2 2 0000u 00000  -0.60167 0.36201

      printout of CI-coefficients larger than  0.05 for root  5
      energy=     -94.756051
      conf/sym  2 3 66666 77777     Coeff  Weight
             7  2 2 00u00 00000   0.66904 0.44762
            23  2 2 000u0 00000  -0.30268 0.09161
            65  2 2 0000u 00000  -0.67566 0.45652

      Natural orbitals and occupation numbers for root  1
      sym 2:   1.999359
      sym 3:   1.997451
      sym 6:   1.000000   0.000000   0.000000   0.000000   0.000603
      sym 7:   0.000010   0.000037   0.000004   0.000000   0.002537

      Natural orbitals and occupation numbers for root  2
      sym 2:   1.999368
      sym 3:   1.997457
      sym 6:   0.000000   1.000009   0.000000   0.000000   0.000585
      sym 7:   0.000010   0.000037   0.000004   0.000000   0.002531

      Natural orbitals and occupation numbers for root  3
      sym 2:   1.999409
      sym 3:   1.997480
      sym 6:   0.000000   1.000044   0.000000   0.000000   0.000509
      sym 7:   0.000010   0.000037   0.000004   0.000000   0.002508

      Natural orbitals and occupation numbers for root  4
      sym 2:   1.999484
      sym 3:   1.997522
      sym 6:   0.000000   0.000000   0.000000   1.000103   0.000374
      sym 7:   0.000009   0.000037   0.000003   0.000000   0.002467

      Natural orbitals and occupation numbers for root  5
      sym 2:   1.999519
      sym 3:   1.997541
      sym 6:   0.000000   0.000000   1.000128   0.000000   0.000315
      sym 7:   0.000009   0.000037   0.000003   0.000000   0.002448

      ************************************************************************************************************************
      *                                                                                                                      *
      *                                                    Final results                                                     *
      *                                                                                                                      *
      ************************************************************************************************************************


++    Wave function specifications:
      -----------------------------

      Number of closed shell electrons          10
      Number of electrons in active shells       5
      Max number of holes in RAS1 space          0
      Max nr of electrons in RAS3 space          0
      Number of inactive orbitals                5
      Number of active orbitals                 12
      Number of secondary orbitals              97
      Spin quantum number                      0.5
      State symmetry                             6
--

++    Orbital specifications:
      -----------------------

      Symmetry species                           1   2   3   4   5   6   7   8
                                                ag b3u b2u b1g b1u b2g b3g  au
      Frozen orbitals                            0   0   0   0   0   0   0   0
      Inactive orbitals                          3   0   0   0   2   0   0   0
      Active orbitals                            0   1   1   0   0   5   5   0
      RAS1 orbitals                              0   0   0   0   0   0   0   0
      RAS2 orbitals                              0   1   1   0   0   5   5   0
      RAS3 orbitals                              0   0   0   0   0   0   0   0
      Secondary orbitals                        21  13  13   5  22   9   9   5
      Deleted orbitals                           0   0   0   0   0   0   0   0
      Number of basis functions                 24  14  14   5  24  14  14   5
--

++    CI expansion specifications:
      ----------------------------

      Number of CSFs                          2375
      Number of determinants                  3890
      Number of root(s) required                 5
      CI roots used                              1     2     3     4     5
      weights                                0.200 0.200 0.200 0.200 0.200
      highest root included in the CI            5
      Root passed to geometry opt.               5
--

++    Final optimization conditions:
      ------------------------------

      Average CI energy                             -95.05721088
      RASSCF energy for state  5                    -94.75605088
      Super-CI energy                                -0.00000000
      RASSCF energy change                            0.00000000
      Max change in MO coefficients              -0.638E+00
      Max non-diagonal density matrix element     0.905E-02
      Maximum BLB matrix element                 -0.303E-04
      (orbital pair   3,   4 in symmetry   1)
      Norm of electronic gradient            0.623E-01
--


      Final state energy(ies):
      ------------------------

::    RASSCF root number  1 Total energy:    -95.26479394
::    RASSCF root number  2 Total energy:    -95.19825511
::    RASSCF root number  3 Total energy:    -95.10316493
::    RASSCF root number  4 Total energy:    -94.96378952
::    RASSCF root number  5 Total energy:    -94.75605088

++    Molecular orbitals:
      -------------------

      Pseudonatural active orbitals and approximate occupation numbers




      Molecular orbitals for symmetry species 1: ag 


      Orbital                 1         2         3         4
      Energy           -19.2874   -1.8282   -0.0574    0.1395
      Occ. No.           2.0000    2.0000    2.0000    0.0000

     1 N1     1s         1.0077    0.0041   -0.0285   -0.0170
     2 N1     1s         0.2818   -1.2495   -0.5652   -0.0688
     3 N1     1s        -0.3004   -0.4898   -0.0307    0.0140
     4 N1     1s         0.4165    2.3556   -0.0945   -3.0234
     5 N1     1s        -0.3551   -1.0550   -0.1711    0.3855
     6 N1     1s         0.0193    0.0134    1.0427    1.7499
     7 N1     2pz       -0.3461   -0.4678    0.3070    0.0381
     8 N1     2pz       -0.1467   -0.6870   -0.2353   -0.0008
     9 N1     2pz        1.3109   -0.4880   -0.8674   -4.3164
    10 N1     2pz       -0.1065    7.6035   -0.1266    1.2974
    11 N1     2pz        1.5025   -4.2061   -1.8624  -29.6227
    12 N1     2pz       -1.2502    3.7295   -0.7581   49.0115
    13 N1     2pz        0.6453   -2.1546    2.5856  -61.3905
    14 N1     2pz       -0.1623    0.6417   -1.2025   44.7068
    15 N1     3d0        0.0746    0.1228    0.0382   -0.0049
    16 N1     3d0        0.1256    0.3690    0.1406    0.0215
    17 N1     3d0       -0.1463   -0.1431    0.0058    0.1453
    18 N1     3d0       -0.1692   -0.6355    0.3176    1.6782
    19 N1     3d2+      -0.0000    0.0003    0.0001   -0.0000
    20 N1     3d2+       0.0000    0.0006   -0.0019    0.0005
    21 N1     3d2+      -0.0000   -0.0002    0.0047   -0.0012
    22 N1     3d2+       0.0000    0.0001   -0.0123    0.0021
    23 N1     4f0       -0.0236   -0.0462   -0.0139    0.0002
    24 N1     4f2+       0.0000   -0.0002   -0.0001   -0.0000



      Molecular orbitals for symmetry species 2: b3u


      Orbital                 1         2
      Energy             0.0000    0.1142
      Occ. No.           1.9994    0.0000

     1 N1     2px       -1.8411   -0.1066
     2 N1     2px        0.7687    0.0790
     3 N1     2px        0.4648   -0.6551
     4 N1     2px        0.4150    2.9332
     5 N1     2px       -0.6057   -6.3587
     6 N1     2px        0.5202    9.3394
     7 N1     2px       -0.2599   -8.6879
     8 N1     2px        0.0612    4.1711
     9 N1     3d1+       0.0378    0.0056
    10 N1     3d1+      -0.1681    0.0205
    11 N1     3d1+       0.2132   -0.0384
    12 N1     3d1+      -0.1346    0.0119
    13 N1     4f1+       0.0506   -0.0015
    14 N1     4f3+       0.0003   -0.0000



      Molecular orbitals for symmetry species 3: b2u


      Orbital                 1         2
      Energy             0.0000    0.1096
      Occ. No.           1.9975    0.0000

     1 N1     2py       -1.8445   -0.1091
     2 N1     2py        0.7714    0.0782
     3 N1     2py        0.4675   -0.6216
     4 N1     2py        0.4127    2.8069
     5 N1     2py       -0.6036   -6.1074
     6 N1     2py        0.5186    9.0118
     7 N1     2py       -0.2591   -8.4122
     8 N1     2py        0.0610    4.0690
     9 N1     3d1-       0.0371    0.0055
    10 N1     3d1-      -0.1676    0.0168
    11 N1     3d1-       0.2147   -0.0298
    12 N1     3d1-      -0.1357   -0.0125
    13 N1     4f3-       0.0003   -0.0000
    14 N1     4f1-       0.0511   -0.0011



      Molecular orbitals for symmetry species 5: b1u


      Orbital                 1         2         3
      Energy           -16.4484   -0.8061    0.1168
      Occ. No.           2.0000    2.0000    0.0000

     1 N1     1s         1.0143   -0.0373    0.0005
     2 N1     1s        -0.2303   -1.1149   -0.0439
     3 N1     1s         0.1559   -0.0186    0.0234
     4 N1     1s         3.3148    5.0763  169.6369
     5 N1     1s         8.7590    9.6701   88.4072
     6 N1     1s        -3.3528   -4.6530  357.4007
     7 N1     2pz       -0.1474   -0.6964   -0.0452
     8 N1     2pz        0.0871    0.0615   -0.0796
     9 N1     2pz       -0.4178   -0.7948  -29.5909
    10 N1     2pz       -0.2397    0.0796    8.4556
    11 N1     2pz       -0.8277   -1.2248  -19.1444
    12 N1     2pz        0.4192    0.6982   -3.2654
    13 N1     2pz        0.0040   -0.0507  -21.9118
    14 N1     2pz        0.0034    0.0171    6.8426
    15 N1     3d0        0.0120    0.0008    0.0020
    16 N1     3d0        0.0018    0.0085   -0.0682
    17 N1     3d0        0.0067    0.0289    0.7627
    18 N1     3d0        0.0472    0.0547    1.2305
    19 N1     3d2+      -0.0000   -0.0002   -0.0002
    20 N1     3d2+      -0.0000   -0.0005   -0.0024
    21 N1     3d2+       0.0000   -0.0015    0.0071
    22 N1     3d2+      -0.0000    0.0005   -0.0152
    23 N1     4f0       -0.0032    0.0042    0.0056
    24 N1     4f2+       0.0000    0.0002    0.0003



      Molecular orbitals for symmetry species 6: b2g


      Orbital                 1         2         3         4         5
      Energy             0.0000    0.0000    0.0000    0.0000    0.0000
      Occ. No.           0.2000    0.2000    0.2000    0.2000    0.2005

     1 N1     2px       -0.0007    0.0164   -0.0812    0.0324    0.7232
     2 N1     2px       -0.1172    1.7863   -3.0428    3.4950    2.3774
     3 N1     2px        3.9108  -55.5466   88.0803 -106.6979  -50.6267
     4 N1     2px      -27.7850  156.1414 -406.5752  393.6733  307.1415
     5 N1     2px       10.4897 -196.1651  265.4661 -351.6420 -141.6685
     6 N1     2px        3.9837  279.5981 -251.4303  416.0211  119.2205
     7 N1     2px      -41.9359 -264.6946  141.7709 -291.8800  -61.8900
     8 N1     2px       47.3695  109.6243  -38.1675   95.7314   15.7702
     9 N1     3d1+       0.0002   -0.0089    0.0078   -0.0152    0.0516
    10 N1     3d1+       0.0616   -0.8890    1.5047   -1.7501   -0.9276
    11 N1     3d1+      -0.2637    3.5886   -5.9714    7.0237    3.8003
    12 N1     3d1+       2.3299   -5.4605   27.7111  -21.6542  -24.2579
    13 N1     4f1+      -0.0010    0.0172   -0.0270    0.0336    0.0095
    14 N1     4f3+      -0.0000    0.0000    0.0000   -0.0000   -0.0004



      Molecular orbitals for symmetry species 7: b3g


      Orbital                 1         2         3         4         5         6
      Energy             0.0000    0.0000    0.0000    0.0000    0.0000    0.1301
      Occ. No.           0.0000    0.0000    0.0000    0.0000    0.0025    0.0000

     1 N1     2py        0.7582   -9.1191   -4.6964    0.1254    3.8113   -0.0030
     2 N1     2py        3.1666   -1.6256  -39.0566    5.9277   -4.8610   -0.7682
     3 N1     2py       -9.8373   33.7910  165.7055 -150.3551   13.0927   24.4986
     4 N1     2py       14.1468  -53.2568 -273.3317  696.3936  -23.3066  -69.6791
     5 N1     2py       -6.5906   24.2616  128.2892 -456.0726   11.7817   86.2784
     6 N1     2py        3.8221  -16.0059  -84.4796  475.1421   -7.9882 -125.8696
     7 N1     2py       -1.4065    7.6552   40.3255 -297.6363    3.8998  135.5886
     8 N1     2py        0.1892   -1.9584  -10.3435   86.3561   -1.0152  -79.9460
     9 N1     3d1-      -0.2568    1.8155    1.2668   -0.0615    0.0503    0.0035
    10 N1     3d1-      -1.1048    2.5770   14.3923   -2.8214    1.2132    0.3881
    11 N1     3d1-       1.1109   -3.3793  -18.0503   10.3272   -1.5704   -1.5775
    12 N1     3d1-      -0.6786    2.8948   14.2192  -47.8150    1.1396    2.5095
    13 N1     4f3-       2.1139    0.0228    0.1051   -0.0004   -0.0394   -0.0057
    14 N1     4f1-       0.0816   -0.5503   -1.8645    0.0736   -0.1261   -0.0024
--

      Von Neumann Entropy (Root  1) =  0.51844


      Mulliken population analysis for root number:  1
      -----------------------------------------------


++    Molecular charges:
      ------------------

      Mulliken charges per centre and basis function type
      ---------------------------------------------------

                N1    
      1s       2.3682
      2px      1.7173
      2pz      2.4787
      2py      1.0163
      3d2+     0.0002
      3d1+    -0.2076
      3d0      0.1480
      3d1-    -0.0065
      3d2-     0.0000
      4f3+     0.0000
      4f2+     0.0000
      4f1+    -0.0098
      4f0      0.0050
      4f1-    -0.0097
      4f2-     0.0000
      4f3-     0.0000
      Total    7.5000

      N-E     -0.5000

      Total electronic charge=   15.000000

      Total            charge=   -1.000000
--



      Expectation values of various properties for root number:  1
      -----------------------------------------------------------


++    Molecular properties:
      ---------------------

      Charge (e):
                      =   -1.0000
      Dipole Moment (Debye):
      Origin of the operator (Ang)=    0.0000    0.0000    0.0000
                   X=  0.0000E+00               Y=  0.0000E+00               Z=  0.0000E+00           Total=  0.0000E+00
      Center of Charge (Ang)
                     X=   -0.00000000               Y=   -0.00000000               Z=   -0.00000000
      Quadrupole Moment (Debye*Ang):
      Origin of the operator (Ang)=    0.0000    0.0000    0.0000
                  XX= -9.8673E+01              XY=  0.0000E+00              XZ=  0.0000E+00              YY= -4.7821E+01
                  YZ=  0.0000E+00              ZZ= -1.0315E+02
      In traceless form (Debye*Ang)
                  XX= -2.3188E+01              XY=  0.0000E+00              XZ=  0.0000E+00              YY=  5.3091E+01
                  YZ=  0.0000E+00              ZZ= -2.9904E+01
--


      Mulliken spin population analysis for root number:  1
      ---------------------------------------------------


++    Molecular charges:
      ------------------

      Mulliken spin population per centre and basis function type
      ---------------------------------------------------

                N1    
      1s       0.0000
      2px      0.6965
      2pz      0.0000
      2py     -0.0000
      3d2+     0.0000
      3d1+    -0.1965
      3d0      0.0000
      3d1-     0.0000
      3d2-     0.0000
      4f3+     0.0000
      4f2+     0.0000
      4f1+    -0.0000
      4f0      0.0000
      4f1-     0.0000
      4f2-     0.0000
      4f3-     0.0000
      Total    0.5000

      Total electronic spin=    1.000000
--


      Von Neumann Entropy (Root  2) =  0.51831


      Mulliken population analysis for root number:  2
      -----------------------------------------------


++    Molecular charges:
      ------------------

      Mulliken charges per centre and basis function type
      ---------------------------------------------------

                N1    
      1s       2.3682
      2px      0.9956
      2pz      2.4787
      2py      1.0163
      3d2+     0.0002
      3d1+     0.5139
      3d0      0.1480
      3d1-    -0.0065
      3d2-     0.0000
      4f3+     0.0000
      4f2+     0.0000
      4f1+    -0.0096
      4f0      0.0050
      4f1-    -0.0097
      4f2-     0.0000
      4f3-     0.0000
      Total    7.5000

      N-E     -0.5000

      Total electronic charge=   15.000000

      Total            charge=   -1.000000
--



      Expectation values of various properties for root number:  2
      -----------------------------------------------------------


++    Molecular properties:
      ---------------------

      Charge (e):
                      =   -1.0000
      Dipole Moment (Debye):
      Origin of the operator (Ang)=    0.0000    0.0000    0.0000
                   X=  0.0000E+00               Y=  0.0000E+00               Z=  0.0000E+00           Total=  0.0000E+00
      Center of Charge (Ang)
                     X=   -0.00000000               Y=   -0.00000000               Z=   -0.00000000
      Quadrupole Moment (Debye*Ang):
      Origin of the operator (Ang)=    0.0000    0.0000    0.0000
                  XX= -7.3607E+01              XY=  0.0000E+00              XZ=  0.0000E+00              YY= -3.9466E+01
                  YZ=  0.0000E+00              ZZ= -7.8510E+01
      In traceless form (Debye*Ang)
                  XX= -1.4619E+01              XY=  0.0000E+00              XZ=  0.0000E+00              YY=  3.6593E+01
                  YZ=  0.0000E+00              ZZ= -2.1974E+01
--


      Mulliken spin population analysis for root number:  2
      ---------------------------------------------------


++    Molecular charges:
      ------------------

      Mulliken spin population per centre and basis function type
      ---------------------------------------------------

                N1    
      1s       0.0000
      2px     -0.0252
      2pz      0.0000
      2py     -0.0000
      3d2+     0.0000
      3d1+     0.5250
      3d0      0.0000
      3d1-     0.0000
      3d2-     0.0000
      4f3+     0.0000
      4f2+     0.0000
      4f1+     0.0002
      4f0      0.0000
      4f1-     0.0000
      4f2-     0.0000
      4f3-     0.0000
      Total    0.5000

      Total electronic spin=    1.000000
--


      Von Neumann Entropy (Root  3) =  0.51777


      Mulliken population analysis for root number:  3
      -----------------------------------------------


++    Molecular charges:
      ------------------

      Mulliken charges per centre and basis function type
      ---------------------------------------------------

                N1    
      1s       2.3682
      2px      3.2982
      2pz      2.4787
      2py      1.0163
      3d2+     0.0002
      3d1+    -1.7880
      3d0      0.1480
      3d1-    -0.0065
      3d2-     0.0000
      4f3+     0.0000
      4f2+     0.0000
      4f1+    -0.0103
      4f0      0.0050
      4f1-    -0.0097
      4f2-     0.0000
      4f3-     0.0000
      Total    7.5000

      N-E     -0.5000

      Total electronic charge=   15.000000

      Total            charge=   -1.000000
--



      Expectation values of various properties for root number:  3
      -----------------------------------------------------------


++    Molecular properties:
      ---------------------

      Charge (e):
                      =   -1.0000
      Dipole Moment (Debye):
      Origin of the operator (Ang)=    0.0000    0.0000    0.0000
                   X=  0.0000E+00               Y=  0.0000E+00               Z=  0.0000E+00           Total=  0.0000E+00
      Center of Charge (Ang)
                     X=   -0.00000000               Y=   -0.00000000               Z=   -0.00000000
      Quadrupole Moment (Debye*Ang):
      Origin of the operator (Ang)=    0.0000    0.0000    0.0000
                  XX= -6.3418E+01              XY=  0.0000E+00              XZ=  0.0000E+00              YY= -3.6069E+01
                  YZ=  0.0000E+00              ZZ= -6.7705E+01
      In traceless form (Debye*Ang)
                  XX= -1.1531E+01              XY=  0.0000E+00              XZ=  0.0000E+00              YY=  2.9492E+01
                  YZ=  0.0000E+00              ZZ= -1.7961E+01
--


      Mulliken spin population analysis for root number:  3
      ---------------------------------------------------


++    Molecular charges:
      ------------------

      Mulliken spin population per centre and basis function type
      ---------------------------------------------------

                N1    
      1s       0.0000
      2px      2.2775
      2pz      0.0000
      2py     -0.0000
      3d2+     0.0000
      3d1+    -1.7770
      3d0      0.0000
      3d1-     0.0000
      3d2-     0.0000
      4f3+     0.0000
      4f2+     0.0000
      4f1+    -0.0005
      4f0      0.0000
      4f1-     0.0000
      4f2-     0.0000
      4f3-     0.0000
      Total    0.5000

      Total electronic spin=    1.000000
--


      Von Neumann Entropy (Root  4) =  0.51678


      Mulliken population analysis for root number:  4
      -----------------------------------------------


++    Molecular charges:
      ------------------

      Mulliken charges per centre and basis function type
      ---------------------------------------------------

                N1    
      1s       2.3682
      2px      0.8391
      2pz      2.4787
      2py      1.0163
      3d2+     0.0002
      3d1+     0.6686
      3d0      0.1480
      3d1-    -0.0066
      3d2-     0.0000
      4f3+     0.0000
      4f2+     0.0000
      4f1+    -0.0077
      4f0      0.0050
      4f1-    -0.0097
      4f2-     0.0000
      4f3-     0.0000
      Total    7.5000

      N-E     -0.5000

      Total electronic charge=   15.000000

      Total            charge=   -1.000000
--



      Expectation values of various properties for root number:  4
      -----------------------------------------------------------


++    Molecular properties:
      ---------------------

      Charge (e):
                      =   -1.0000
      Dipole Moment (Debye):
      Origin of the operator (Ang)=    0.0000    0.0000    0.0000
                   X=  0.0000E+00               Y=  0.0000E+00               Z=  0.0000E+00           Total=  0.0000E+00
      Center of Charge (Ang)
                     X=   -0.00000000               Y=   -0.00000000               Z=   -0.00000000
      Quadrupole Moment (Debye*Ang):
      Origin of the operator (Ang)=    0.0000    0.0000    0.0000
                  XX= -5.6779E+01              XY=  0.0000E+00              XZ=  0.0000E+00              YY= -3.3856E+01
                  YZ=  0.0000E+00              ZZ= -6.0168E+01
      In traceless form (Debye*Ang)
                  XX= -9.7665E+00              XY=  0.0000E+00              XZ=  0.0000E+00              YY=  2.4617E+01
                  YZ=  0.0000E+00              ZZ= -1.4851E+01
--


      Mulliken spin population analysis for root number:  4
      ---------------------------------------------------


++    Molecular charges:
      ------------------

      Mulliken spin population per centre and basis function type
      ---------------------------------------------------

                N1    
      1s       0.0000
      2px     -0.1815
      2pz      0.0000
      2py     -0.0000
      3d2+     0.0000
      3d1+     0.6794
      3d0      0.0000
      3d1-     0.0000
      3d2-     0.0000
      4f3+     0.0000
      4f2+     0.0000
      4f1+     0.0021
      4f0      0.0000
      4f1-     0.0000
      4f2-     0.0000
      4f3-     0.0000
      Total    0.5000

      Total electronic spin=    1.000000
--


      Von Neumann Entropy (Root  5) =  0.51633


      Mulliken population analysis for root number:  5
      -----------------------------------------------


++    Molecular charges:
      ------------------

      Mulliken charges per centre and basis function type
      ---------------------------------------------------

                N1    
      1s       2.3682
      2px     -2.7523
      2pz      2.4787
      2py      1.0163
      3d2+     0.0002
      3d1+     4.2654
      3d0      0.1480
      3d1-    -0.0066
      3d2-     0.0000
      4f3+     0.0000
      4f2+     0.0000
      4f1+    -0.0132
      4f0      0.0050
      4f1-    -0.0097
      4f2-     0.0000
      4f3-     0.0000
      Total    7.5000

      N-E     -0.5000

      Total electronic charge=   15.000000

      Total            charge=   -1.000000
--



      Expectation values of various properties for root number:  5
      -----------------------------------------------------------


++    Molecular properties:
      ---------------------

      Charge (e):
                      =   -1.0000
      Dipole Moment (Debye):
      Origin of the operator (Ang)=    0.0000    0.0000    0.0000
                   X=  0.0000E+00               Y=  0.0000E+00               Z=  0.0000E+00           Total=  0.0000E+00
      Center of Charge (Ang)
                     X=   -0.00000000               Y=   -0.00000000               Z=   -0.00000000
      Quadrupole Moment (Debye*Ang):
      Origin of the operator (Ang)=    0.0000    0.0000    0.0000
                  XX= -4.6388E+01              XY=  0.0000E+00              XZ=  0.0000E+00              YY= -3.0393E+01
                  YZ=  0.0000E+00              ZZ= -5.4544E+01
      In traceless form (Debye*Ang)
                  XX= -3.9198E+00              XY=  0.0000E+00              XZ=  0.0000E+00              YY=  2.0074E+01
                  YZ=  0.0000E+00              ZZ= -1.6154E+01
--


      Mulliken spin population analysis for root number:  5
      ---------------------------------------------------


++    Molecular charges:
      ------------------

      Mulliken spin population per centre and basis function type
      ---------------------------------------------------

                N1    
      1s       0.0000
      2px     -3.7728
      2pz      0.0000
      2py     -0.0000
      3d2+     0.0000
      3d1+     4.2763
      3d0      0.0000
      3d1-     0.0000
      3d2-     0.0000
      4f3+     0.0000
      4f2+     0.0000
      4f1+    -0.0035
      4f0      0.0000
      4f1-     0.0000
      4f2-     0.0000
      4f3-     0.0000
      Total    0.5000

      Total electronic spin=    1.000000
--



  Input file to MOLDEN was generated!


  Input file to MOLDEN was generated!


  Input file to MOLDEN was generated!


  Input file to MOLDEN was generated!


  Input file to MOLDEN was generated!


  Input file to MOLDEN was generated!

      Average orbitals are written to the RASORB file
      Natural orbitals for root   1 are written to the RASORB.1 file
      Natural orbitals for root   2 are written to the RASORB.2 file
      Natural orbitals for root   3 are written to the RASORB.3 file
      Natural orbitals for root   4 are written to the RASORB.4 file
      Natural orbitals for root   5 are written to the RASORB.5 file
      Spin density orbitals for root   1 are written to the SPDORB.1 file
      Spin density orbitals for root   2 are written to the SPDORB.2 file
      Spin density orbitals for root   3 are written to the SPDORB.3 file
      Spin density orbitals for root   4 are written to the SPDORB.4 file
      Spin density orbitals for root   5 are written to the SPDORB.5 file

 ###############################################################################
 ###############################################################################
 ###                                                                         ###
 ###                                                                         ###
[...]
AIVX     1  Mu1.0003  In1.003 Se1.005              -0.12210206      0.00096825      0.00457351      0.00000443
AIVX     1  Mu1.0004  In1.003 Se1.005              -0.04622285      0.00037908      0.00154291      0.00000058
AIVX     1  Mu1.0005  In1.003 Se1.005              -0.00377609      0.00394941      0.00143920      0.00000568
AIVX     1  Mu1.0006  In1.003 Se1.005               0.07211938     -0.00256155      0.01177674     -0.00003017
AIVX     1  Mu1.0007  In1.003 Se1.005               0.14594503      0.01828780     -0.08620440     -0.00157649
AIVX     1  Mu1.0008  In1.003 Se1.005               0.22253999     -0.01080379      0.04151038     -0.00044847
AIVX     1  Mu1.0009  In1.003 Se1.005               0.27608987     -0.01727041      0.04842964     -0.00083640
AIVX     1  Mu1.0001  In1.003 Se1.006              -0.18188217      0.00018348      0.00070691      0.00000013
AIVX     1  Mu1.0002  In1.003 Se1.006              -0.10600528     -0.00070383     -0.00357013      0.00000251
AIVX     1  Mu1.0003  In1.003 Se1.006              -0.08218815      0.00059170      0.00287396      0.00000170
AIVX     1  Mu1.0004  In1.003 Se1.006              -0.00630895      0.00277883      0.00174187      0.00000484
AIVX     1  Mu1.0005  In1.003 Se1.006               0.03613781      0.00423498     -0.01313285     -0.00005562
AIVX     1  Mu1.0006  In1.003 Se1.006               0.11203328      0.00106755     -0.00569689     -0.00000608
AIVX     1  Mu1.0007  In1.003 Se1.006               0.18585894      0.01764565     -0.07517646     -0.00132654
AIVX     1  Mu1.0008  In1.003 Se1.006               0.26245390     -0.00810004      0.02865080     -0.00023207
AIVX     1  Mu1.0009  In1.003 Se1.006               0.31600378     -0.02049148      0.05159223     -0.00105720
AIVX     1  Mu1.0001  In1.003 Se1.007              -0.05831968     -0.00013086     -0.00058273      0.00000008
AIVX     1  Mu1.0002  In1.003 Se1.007               0.01755722      0.00000776     -0.00001249     -0.00000000
AIVX     1  Mu1.0003  In1.003 Se1.007               0.04137434     -0.00044118      0.00159504     -0.00000070
AIVX     1  Mu1.0004  In1.003 Se1.007               0.11725355     -0.00099776      0.00484906     -0.00000484
AIVX     1  Mu1.0005  In1.003 Se1.007               0.15970031      0.00063240     -0.00275178     -0.00000174
AIVX     1  Mu1.0006  In1.003 Se1.007               0.23559577     -0.00322329      0.01155735     -0.00003725
AIVX     1  Mu1.0001  In1.003 Se1.008              -0.05356250      0.00026494      0.00108703      0.00000029
AIVX     1  Mu1.0002  In1.003 Se1.008               0.02231439     -0.00012363      0.00026736     -0.00000003
AIVX     1  Mu1.0003  In1.003 Se1.008               0.04613152      0.00085127     -0.00318917     -0.00000271
AIVX     1  Mu1.0004  In1.003 Se1.008               0.12201072     -0.00009898      0.00043079     -0.00000004
AIVX     1  Mu1.0005  In1.003 Se1.008               0.16445748      0.00083647     -0.00359905     -0.00000301
AIVX     1  Mu1.0006  In1.003 Se1.008               0.24035295     -0.00118354      0.00415712     -0.00000492
AIVX     1  Mu1.0001  In1.003 Se1.009              -0.03688866     -0.00048437     -0.00161255      0.00000078
AIVX     1  Mu1.0002  In1.003 Se1.009               0.03898823      0.00063241     -0.00212126     -0.00000134
AIVX     1  Mu1.0003  In1.003 Se1.009               0.06280535     -0.00047235      0.00245133     -0.00000116
AIVX     1  Mu1.0004  In1.003 Se1.009               0.13868456     -0.00411397      0.01923088     -0.00007912
AIVX     1  Mu1.0005  In1.003 Se1.009               0.18113132      0.00405535     -0.01650579     -0.00006694
AIVX     1  Mu1.0006  In1.003 Se1.009               0.25702679     -0.00945212      0.03163943     -0.00029906
AIVX     1  Mu1.0007  In1.003 Se1.009               0.33085244      0.01726835     -0.04800136     -0.00082890
AIVX     1  Mu1.0008  In1.003 Se1.009               0.40744740     -0.01263316      0.02975048     -0.00037584
AIVX     1  Mu1.0009  In1.003 Se1.009               0.46099729     -0.01629163      0.02792603     -0.00045496
AIVX     1  Mu1.0001  In1.003 Se1.010               0.18867122     -0.00124652      0.00518120     -0.00000646
AIVX     1  Mu1.0002  In1.003 Se1.010               0.26454811      0.00140034     -0.00462935     -0.00000648
AIVX     1  Mu1.0003  In1.003 Se1.010               0.28836524     -0.00277111      0.00874359     -0.00002423
AIVX     1  Mu1.0001  In1.003 Se1.011               0.29005532      0.00120390     -0.00372039     -0.00000448
BJATP    6  Mu6.0001  In1.003 Se5.003 Se2.003      -0.26428082     -0.00079483     -0.00263085      0.00000209
BJATP    6  Mu6.0001  In1.003 Se5.003 Se2.004      -0.15519762      0.00197726      0.00900267      0.00001780
BJATP    6  Mu6.0001  In1.003 Se5.003 Se2.005       0.03705022      0.00121141     -0.00394651     -0.00000478
BJATP    6  Mu6.0001  In1.003 Se5.003 Se2.006       0.12743596      0.00533051     -0.02588794     -0.00013800
BJATP    6  Mu6.0001  In1.003 Se5.004 Se2.002      -0.24479804     -0.00192965     -0.00675535      0.00001304
BJATP    6  Mu6.0001  In1.003 Se5.004 Se2.003      -0.18679631      0.00425667      0.01771182      0.00007539
BJATP    6  Mu6.0001  In1.003 Se5.004 Se2.004      -0.07771311     -0.00545337     -0.02642254      0.00014409
BJATP    6  Mu6.0001  In1.003 Se5.004 Se2.005       0.11453473     -0.00414059      0.02051357     -0.00008494
BJATP    6  Mu6.0001  In1.003 Se5.004 Se2.006       0.20492047     -0.01581814      0.06234484     -0.00098618
BJATP    6  Mu6.0001  In1.003 Se5.005 Se2.002      -0.16164946     -0.00048589     -0.00217386      0.00000106
BJATP    6  Mu6.0001  In1.003 Se5.005 Se2.003      -0.10364773      0.00013275      0.00066329      0.00000009
BJATP    6  Mu6.0001  In1.003 Se5.005 Se2.004       0.00543547      0.00186712     -0.00101189     -0.00000189
BJATP    6  Mu6.0001  In1.003 Se5.005 Se2.005       0.19768331      0.00134606     -0.00542170     -0.00000730
BJATP    6  Mu6.0001  In1.003 Se5.005 Se2.006       0.28806905      0.00573526     -0.01776815     -0.00010190
BJATP    6  Mu6.0001  In1.003 Se5.006 Se2.002      -0.11246226     -0.00426926     -0.02119993      0.00009051
BJATP    6  Mu6.0001  In1.003 Se5.006 Se2.003      -0.05446052      0.00841189      0.03533230      0.00029721
BJATP    6  Mu6.0001  In1.003 Se5.006 Se2.004       0.05462267     -0.00468244      0.01969932     -0.00009224
BJATP    6  Mu6.0001  In1.003 Se5.006 Se2.005       0.24687052     -0.00505755      0.01759882     -0.00008901
BJATP    6  Mu6.0001  In1.003 Se5.006 Se2.006       0.33725626     -0.01567632      0.04272553     -0.00066978
BJATP    6  Mu6.0001  In1.003 Se5.007 Se2.002       0.08229959     -0.00250350      0.01228371     -0.00003075
BJATP    6  Mu6.0001  In1.003 Se5.007 Se2.003       0.14030133      0.00423032     -0.01999435     -0.00008458
BJATP    6  Mu6.0001  In1.003 Se5.007 Se2.004       0.24938452     -0.00100043      0.00345598     -0.00000346
BJATP    6  Mu6.0001  In1.003 Se5.008 Se2.002       0.11576549      0.00218431     -0.01080556     -0.00002360
BJATP    6  Mu6.0001  In1.003 Se5.008 Se2.003       0.17376722     -0.00461699      0.01995971     -0.00009215
BJATP    6  Mu6.0001  In1.003 Se5.008 Se2.004       0.28285042      0.00274706     -0.00863299     -0.00002372
BJATP    6  Mu6.0001  In1.003 Se5.009 Se2.002       0.13194991      0.00093734     -0.00451216     -0.00000423
BJATP    6  Mu6.0001  In1.003 Se5.009 Se2.003       0.18995165     -0.00178216      0.00734623     -0.00001309
BJATP    6  Mu6.0001  In1.003 Se5.009 Se2.004       0.29903484      0.00109202     -0.00328456     -0.00000359
BJATP    6  Mu6.0001  In1.003 Se7.006 Se4.001      -0.03925881     -0.00016233     -0.00050234      0.00000008
BJATP    6  Mu6.0001  In1.003 Se7.007 Se4.001       0.06067109     -0.00086838      0.00324660     -0.00000282
BJATP    6  Mu6.0001  In1.003 Se7.008 Se4.001       0.21377949      0.00279511     -0.00850280     -0.00002377
BJATP    6  Mu6.0001  In1.003 Se8.001 Se3.002       0.11157200      0.00198491     -0.00986534     -0.00001958
BJATP    6  Mu6.0001  In1.003 Se8.001 Se3.003       0.16778339     -0.00399818      0.01758337     -0.00007030
BJATP    6  Mu6.0001  In1.003 Se8.001 Se3.004       0.27783975      0.00234307     -0.00746602     -0.00001749
BJATM    6  Mu6.0001  In1.003 Se5.003 Se2.003      -0.26428082     -0.00019254     -0.00063726      0.00000012
BJATM    6  Mu6.0001  In1.003 Se5.003 Se2.004      -0.15519762     -0.00156375     -0.00711994      0.00001113
BJATM    6  Mu6.0001  In1.003 Se5.003 Se2.005       0.03705022     -0.00263582      0.00858694     -0.00002263
BJATM    6  Mu6.0001  In1.003 Se5.003 Se2.006       0.12743596     -0.00598126      0.02904839     -0.00017375
BJATM    6  Mu6.0001  In1.003 Se5.004 Se2.002      -0.24479804     -0.00046028     -0.00161134      0.00000074
BJATM    6  Mu6.0001  In1.003 Se5.004 Se2.003      -0.18679631      0.00234964      0.00977656      0.00002297
BJATM    6  Mu6.0001  In1.003 Se5.004 Se2.004      -0.07771311      0.00178949      0.00867055      0.00001552
BJATM    6  Mu6.0001  In1.003 Se5.004 Se2.005       0.11453473      0.00753240     -0.03731749     -0.00028109
BJATM    6  Mu6.0001  In1.003 Se5.004 Se2.006       0.20492047      0.01568954     -0.06183796     -0.00097021
BJATM    6  Mu6.0001  In1.003 Se5.004 Se2.007       0.42848461      0.01414363     -0.03130331     -0.00044274
BJATM    6  Mu6.0001  In1.003 Se5.005 Se2.002      -0.16164946     -0.00120437     -0.00538840      0.00000649
BJATM    6  Mu6.0001  In1.003 Se5.005 Se2.003      -0.10364773      0.00154535      0.00772186      0.00001193
BJATM    6  Mu6.0001  In1.003 Se5.005 Se2.004       0.00543547     -0.00104206      0.00056475     -0.00000059
BJATM    6  Mu6.0001  In1.003 Se5.005 Se2.005       0.19768331     -0.00379443      0.01528339     -0.00005799
BJATM    6  Mu6.0001  In1.003 Se5.005 Se2.006       0.28806905     -0.00544520      0.01686951     -0.00009186
BJATM    6  Mu6.0001  In1.003 Se5.006 Se2.002      -0.11246226     -0.00415497     -0.02063233      0.00008573
BJATM    6  Mu6.0001  In1.003 Se5.006 Se2.003      -0.05446052      0.00822722      0.03455645      0.00028430
BJATM    6  Mu6.0001  In1.003 Se5.006 Se2.004       0.05462267     -0.00246798      0.01038271     -0.00002562
BJATM    6  Mu6.0001  In1.003 Se5.006 Se2.005       0.24687052      0.00648320     -0.02255958     -0.00014626
BJATM    6  Mu6.0001  In1.003 Se5.006 Se2.006       0.33725626      0.01185397     -0.03230777     -0.00038298
BJATM    6  Mu6.0001  In1.003 Se5.007 Se2.002       0.08229959     -0.00311822      0.01529985     -0.00004771
BJATM    6  Mu6.0001  In1.003 Se5.007 Se2.003       0.14030133      0.00557956     -0.02637123     -0.00014714
BJATM    6  Mu6.0001  In1.003 Se5.007 Se2.004       0.24938452     -0.00202313      0.00698864     -0.00001414
BJATM    6  Mu6.0001  In1.003 Se5.008 Se2.002       0.11576549      0.00286186     -0.01415733     -0.00004052
BJATM    6  Mu6.0001  In1.003 Se5.008 Se2.003       0.17376722     -0.00570786      0.02467565     -0.00014085
BJATM    6  Mu6.0001  In1.003 Se5.008 Se2.004       0.28285042      0.00225115     -0.00707452     -0.00001593
BJATM    6  Mu6.0001  In1.003 Se5.009 Se2.002       0.13194991      0.00007697     -0.00037050     -0.00000003
BJATM    6  Mu6.0001  In1.003 Se5.009 Se2.003       0.18995165     -0.00068704      0.00283196     -0.00000195
BJATM    6  Mu6.0001  In1.003 Se5.009 Se2.004       0.29903484      0.00125768     -0.00378271     -0.00000476
BJATM    6  Mu6.0001  In1.003 Se6.007 Se1.005       0.72283912      0.02082058     -0.02693088     -0.00056072
BJATM    6  Mu6.0001  In1.003 Se7.006 Se4.001      -0.03925881      0.00032058      0.00114648      0.00000037
BJATM    6  Mu6.0001  In1.003 Se7.007 Se4.001       0.06067109      0.00077936     -0.00426937     -0.00000333
BJATM    6  Mu6.0001  In1.003 Se7.008 Se4.001       0.21377949      0.00095451     -0.00064458     -0.00000062
BJATM    6  Mu6.0001  In1.003 Se8.001 Se3.002       0.11157200      0.00282058     -0.01401878     -0.00003954
BJATM    6  Mu6.0001  In1.003 Se8.001 Se3.003       0.16778339     -0.00519046      0.02282683     -0.00011848
BJATM    6  Mu6.0001  In1.003 Se8.001 Se3.004       0.27783975      0.00186400     -0.00593949     -0.00001107
BJAIP    1  Se1.006 In1.003 Se1.006 In1.003         0.57847951      0.02305746     -0.03777028     -0.00087089
BJAIP    1  Se2.002 In1.003 Se2.002 In1.003         0.28682105      0.00564142     -0.01753704     -0.00009893
BJAIP    1  Se2.002 In1.003 Se2.003 In1.003         0.34482278     -0.01626420      0.04350772     -0.00070762
BJAIP    1  Se2.003 In1.003 Se2.003 In1.003         0.40282452      0.02496857     -0.05838563     -0.00145781
BJAIP    1  Se2.003 In1.003 Se2.004 In1.003         0.51190772     -0.02126292      0.04000982     -0.00085073
BJAIP    1  Se3.002 In1.003 Se3.002 In1.003         0.27775268      0.00658451     -0.02098609     -0.00013818
BJAIP    1  Se3.002 In1.003 Se3.003 In1.003         0.33396408     -0.01787851      0.04912928     -0.00087836
BJAIP    1  Se3.003 In1.003 Se3.003 In1.003         0.39017547      0.02574956     -0.06192702     -0.00159459
BJAIP    1  Se3.003 In1.003 Se3.004 In1.003         0.50023182     -0.02186817      0.04203618     -0.00091925
BJAIP    1  Se5.003 In1.003 Se5.003 In1.003         0.28825724      0.00270088     -0.00836320     -0.00002259
BJAIP    1  Se5.004 In1.003 Se5.004 In1.003         0.44322626      0.01827837     -0.03924180     -0.00071728
BJAIP    1  Se5.004 In1.003 Se5.006 In1.003         0.57556205      0.02151707     -0.03628901     -0.00078083
BJAIP    1  Se1.009 In5.002 Se1.009 In5.002         2.29773510      0.05788390     -0.02514409     -0.00145544
--

   (Skipping property calculation,
    use PROP keyword to activate)
--

  Total CASPT2 energies:
::    CASPT2 Root  1     Total energy:    -95.50812900
::    CASPT2 Root  2     Total energy:    -95.44931493
::    CASPT2 Root  3     Total energy:    -95.36565660
::    CASPT2 Root  4     Total energy:    -95.23506464
::    CASPT2 Root  5     Total energy:    -95.03409980

++ Multi-State CASPT2 section:
********************************************************************************
  MULTI-STATE CASPT2 SECTION
--------------------------------------------------------------------------------


  Effective Hamiltonian matrix (Symmetric):

                1               2               3               4               5
   1       -95.50812900
   2        -0.00305521    -95.44931493
   3        -0.00266602     -0.01103832    -95.36565660
   4        -0.00136536     -0.00692910     -0.01774924    -95.23506464
   5         0.00022228     -0.00198738     -0.01035574     -0.02315922    -95.03409980

       Total MS-CASPT2 energies:
::    MS-CASPT2 Root  1     Total energy:    -95.50837907
::    MS-CASPT2 Root  2     Total energy:    -95.45097912
::    MS-CASPT2 Root  3     Total energy:    -95.36679346
::    MS-CASPT2 Root  4     Total energy:    -95.23485660
::    MS-CASPT2 Root  5     Total energy:    -95.03125672

       Eigenvectors:
            0.99804446     -0.06016778     -0.01661616     -0.00318218      0.00093313
            0.05710057      0.98782134     -0.14244659     -0.02554374     -0.00224017
            0.02411169      0.13627817      0.98015679     -0.13972522     -0.02482773
            0.00805785      0.04365509      0.13122414      0.98415566     -0.11066689
            0.00069145      0.01055180      0.03880414      0.10607490      0.99354443

--

  THE ORIGINAL CI ARRAYS ARE NOW MIXED AS LINEAR
  COMBINATIONS, GIVEN BY THE EIGENVECTORS.
  A NEW JOBIPH FILE NAMED 'JOBMIX' IS PREPARED.
********************************************************************************

++ Mixed CI coefficients:
  The CI coefficients for the MIXED state nr.   1
--------------------------------------------------------------------------------
 CI COEFFICIENTS LARGER THAN  0.50D-01
  Occupation of active orbitals, and spin coupling
  of open shells. (u,d: Spin up or down).
  SGUGA info is (Midvert:IsyUp:UpperWalk/LowerWalk)
        Conf  SGUGA info        Occupation          Coefficient         Weight
           1  ( 1:1:   1/   1)   2 2 u0000 00000      -0.928387       0.861902
           2  ( 1:1:   1/   2)   2 2 0u000 00000       0.081082       0.006574
           7  ( 1:1:   1/   7)   2 2 00u00 00000      -0.143931       0.020716
          23  ( 1:1:   1/  23)   2 2 000u0 00000      -0.324230       0.105125
          65  ( 2:6:   1/   1)   2 2 0000u 00000      -0.063941       0.004088

  The CI coefficients for the MIXED state nr.   2
--------------------------------------------------------------------------------
 CI COEFFICIENTS LARGER THAN  0.50D-01
  Occupation of active orbitals, and spin coupling
  of open shells. (u,d: Spin up or down).
  SGUGA info is (Midvert:IsyUp:UpperWalk/LowerWalk)
        Conf  SGUGA info        Occupation          Coefficient         Weight
           1  ( 1:1:   1/   1)   2 2 u0000 00000       0.277456       0.076982
           2  ( 1:1:   1/   2)   2 2 0u000 00000       0.723479       0.523422
           7  ( 1:1:   1/   7)   2 2 00u00 00000      -0.447169       0.199961
          23  ( 1:1:   1/  23)   2 2 000u0 00000      -0.364758       0.133048
          65  ( 2:6:   1/   1)   2 2 0000u 00000      -0.254969       0.065009

  The CI coefficients for the MIXED state nr.   3
--------------------------------------------------------------------------------
 CI COEFFICIENTS LARGER THAN  0.50D-01
  Occupation of active orbitals, and spin coupling
  of open shells. (u,d: Spin up or down).
  SGUGA info is (Midvert:IsyUp:UpperWalk/LowerWalk)
        Conf  SGUGA info        Occupation          Coefficient         Weight
           1  ( 1:1:   1/   1)   2 2 u0000 00000       0.143083       0.020473
           2  ( 1:1:   1/   2)   2 2 0u000 00000      -0.662878       0.439408
           7  ( 1:1:   1/   7)   2 2 00u00 00000      -0.512757       0.262920
          23  ( 1:1:   1/  23)   2 2 000u0 00000      -0.257655       0.066386
          65  ( 2:6:   1/   1)   2 2 0000u 00000      -0.457466       0.209275

  The CI coefficients for the MIXED state nr.   4
--------------------------------------------------------------------------------
 CI COEFFICIENTS LARGER THAN  0.50D-01
  Occupation of active orbitals, and spin coupling
  of open shells. (u,d: Spin up or down).
  SGUGA info is (Midvert:IsyUp:UpperWalk/LowerWalk)
        Conf  SGUGA info        Occupation          Coefficient         Weight
           1  ( 1:1:   1/   1)   2 2 u0000 00000      -0.187679       0.035223
           2  ( 1:1:   1/   2)   2 2 0u000 00000       0.169267       0.028651
           7  ( 1:1:   1/   7)   2 2 00u00 00000      -0.106179       0.011274
          23  ( 1:1:   1/  23)   2 2 000u0 00000       0.746214       0.556836
          65  ( 2:6:   1/   1)   2 2 0000u 00000      -0.605409       0.366521

  The CI coefficients for the MIXED state nr.   5
--------------------------------------------------------------------------------
 CI COEFFICIENTS LARGER THAN  0.50D-01
  Occupation of active orbitals, and spin coupling
  of open shells. (u,d: Spin up or down).
  SGUGA info is (Midvert:IsyUp:UpperWalk/LowerWalk)
        Conf  SGUGA info        Occupation          Coefficient         Weight
           1  ( 1:1:   1/   1)   2 2 u0000 00000       0.061845       0.003825
           7  ( 1:1:   1/   7)   2 2 00u00 00000       0.709601       0.503534
          23  ( 1:1:   1/  23)   2 2 000u0 00000      -0.370148       0.137010
          65  ( 2:6:   1/   1)   2 2 0000u 00000      -0.594797       0.353784

--

--- Stop Module: caspt2 at Mon Jul  5 21:22:00 2021 /rc=_RC_ALL_IS_WELL_ ---
*** files: xmldump
    saved to directory /home/gayverjr/opencap_examples
--- Module caspt2 spent 20 seconds ---

.##################.
.# Happy landing! #.
.##################.

    Timing: Wall=42.97 User=273.02 System=9.34
