******************************************************
*** WorkDir and CurrDir are the same, not cleaned! ***
******************************************************
   This run of MOLCAS is using the pymolcas driver

                             OPE
                             OPE          NMOL  CASOP  ENMOLC A   SO
                 OPE        NMOLC        AS  OP EN  MO LC     AS  OP
                OPENM       OL CA        SO  PE NM  OL CA     SOP EN
                OP EN      MO   LC       AS  OP ENMOL  CASO   PENMOL
                OP  EN     MO   LC       AS  OP EN     MO     LC ASO
               OP   E  NMOL  C  AS       OP  EN MO     LC     AS  OP
               OP  E   NMO   LC AS        OPEN  MO     LCASOP EN   M
               O  PEN   MO  LCA  SO
            OPE   NMO   L   CAS    OP
        OPENMOL  CASOP     ENMOL   CASOPE
     OPENMOLCA   SOPENMOLCASOPEN   MOLCASOPE
    OPENMOLCAS   OP           EN   MOL    CAS
    OPENMOLCAS       OP  ENM        O     LCA
    OPENMOLCAS    OPEN  MOLCASO     P  E  NMO
    OPENMOLCAS     OP               E  N  MOL
    OPENMOLCA   SO           PENM   O  L  CAS    OPEN    MO    LCAS
    OPENMOLCA   SOP           ENM   O  L  CAS   OP  EN  MOLC  AS   O
    OPENMOLCA   SOPE           NM      O  LCA   S      OP  EN MO
    OPENMOLC                AS         O  PEN   M      OL  CA  SOPE
    OPENMO        LCASOPE  NMOL        C  ASO   P      ENMOLC     AS
    OPE     NMO      LCA  SO     P     E   NM   OL  CA SO  PE N   MO
          OPENMOLCA            SOPE   NMO        LCAS  O    P  ENMO
     OPENMOLCASOPENMOLCASOPENMOLCASOPENMOLCA
        OPENMOLCASOPENMOLCASOPENMOLCASOPE
            OPENMOLCASOPENMOLCASOPENM
               OPENMOLCASOPENMOLCA        version: 19.11
                   OPENMOLCASO
                       OPE                tag: 1162-ga18ab34

 OpenMolcas is free software; you can redistribute it and/or modify it
 under the terms of the GNU Lesser General Public License version 2.1.
 OpenMolcas is distributed in the hope that it will be useful, but it
 is provided "as is" and without any express or implied warranties.
 For more details see the full text of the license in the file
 LICENSE or in <http://www.gnu.org/licenses/>.

                 Copyright (C) The OpenMolcas Authors
           For the author list and the recommended citation,
                   consult the file CONTRIBUTORS.md

           *************************************************
           * pymolcas version py2.08                       *
           *   build bed633bbe89b7744c23cdbfc3f64969c      *
           *   (after the EMIL interpreter by V. Veryazov) *
           *************************************************

configuration info
------------------
C Compiler ID: GNU
C flags: -std=gnu99 -fopenmp
Fortran Compiler ID: GNU
Fortran flags: -fno-aggressive-loop-optimizations -cpp -fdefault-integer-8 -fopenmp
Definitions: _MOLCAS_;_I8_;_LINUX_;_MKL_;_DMRG_
Parallel: OFF (GA=OFF)


   ----------------------------------------------------------------------
  |
  |             Project: anion_xms
  |      Submitted from: /scratch/gayverjr/anion_xms.2479286135
  |        Scratch area: /scratch/gayverjr/anion_xms.2479286135
  |     Save outputs to: /home/gayverjr/OpenCAP/molcas_tests
  |              Molcas: /home/qcsoftware/OpenMolcas/qcmaquis_build/build
  |
  | Scratch area is NOT empty
  |
  |      MOLCAS_DRIVER = /home/qcsoftware/bin/pymolcas
  | MOLCAS_NEW_WORKDIR = YES
  |      MOLCAS_NPROCS = 16
  |      MOLCAS_SOURCE = /home/qcsoftware/OpenMolcas/Molcas_src
  |   MOLCAS_STRUCTURE = 0
  |
   ----------------------------------------------------------------------

++ ---------   Input file   ---------

&GATEWAY
Coord
2
Bohr
 N  0.0  0.0  1.039
 N  0.0  0.0  -1.039
Basis set = aug-cc-pvdz
group = nosym

&SEWARD

&SCF

&RASSCF
LUMORB
Charge = 0
Ras2=4
TDM
NActEl=4,0,0
CIROOT= 10 10 1

&CASPT2
MAXIter = 50
XMULtistate = all

&RASSI
TRD1
Heff
EJOB

-- ----------------------------------

--- Start Module: gateway at Mon Aug  3 23:03:54 2020 ---

()()()()()()()()()()()()()()()()()()()()()()()()()()()()()()()()()()()()()()()()()()()()()()()()()()

                                              &GATEWAY

                                   only a single process is used
                       available to each process: 20 GB of memory, 16 threads
                                             pid: 16337
()()()()()()()()()()()()()()()()()()()()()()()()()()()()()()()()()()()()()()()()()()()()()()()()()()


++    Symmetry information:
      ---------------------

                    Character Table for C1 

                             E  
                    a        1  x, y, xy, Rz, z, xz, Ry, yz, Rx, I
--


++    Basis set information:
      ----------------------


      Basis set label: N.AUG-CC-PVDZ.........

      Electronic valence basis set:
      ------------------
      Associated Effective Charge   7.000000 au
      Associated Actual Charge      7.000000 au
      Nuclear Model: Point charge

      Shell  nPrim  nBasis  Cartesian Spherical Contaminant
         s      10       4        X                  
         p       5       3        X                  
         d       2       2                 X         
--


++    Molecular structure info:
      -------------------------

                    ************************************************ 
                    **** Cartesian Coordinates / Bohr, Angstrom **** 
                    ************************************************ 

     Center  Label                x              y              z                     x              y              z
        1      N1               0.000000       0.000000       1.039000              0.000000       0.000000       0.549815
        2      N2               0.000000       0.000000      -1.039000              0.000000       0.000000      -0.549815
--


            Nuclear Potential Energy             23.58036574 au

--- Stop Module: gateway at Mon Aug  3 23:03:56 2020 /rc=_RC_ALL_IS_WELL_ ---
*** files: xmldump
    saved to directory /home/gayverjr/OpenCAP/molcas_tests
--- Module gateway spent 1 second ---

--- Start Module: seward at Mon Aug  3 23:03:56 2020 ---

()()()()()()()()()()()()()()()()()()()()()()()()()()()()()()()()()()()()()()()()()()()()()()()()()()

                                              &SEWARD

                                   only a single process is used
                       available to each process: 20 GB of memory, 16 threads
                                             pid: 16358
()()()()()()()()()()()()()()()()()()()()()()()()()()()()()()()()()()()()()()()()()()()()()()()()()()

               SEWARD will generate:
                  Multipole Moment integrals up to order  2
                  Kinetic Energy integrals
                  Nuclear Attraction integrals (point charge)
                  One-Electron Hamiltonian integrals
                  Velocity integrals
                  Orbital angular momentum around ( 0.0000  0.0000  0.0000 )
                  Velocity quadrupole around ( 0.0000  0.0000  0.0000 )
                  Two-Electron Repulsion integrals

                   Integrals are discarded if absolute value <: 0.10E-13
                   Integral cutoff threshold is set to       <: 0.10E-15

            Nuclear Potential Energy             23.58036574 au


      Basis set specifications :
      Symmetry species         a  
      Basis functions           46


  Input file to MOLDEN was generated!

--- Stop Module: seward at Mon Aug  3 23:03:58 2020 /rc=_RC_ALL_IS_WELL_ ---
*** files: anion_xms.GssOrb anion_xms.guessorb.h5 anion_xms.guessorb.molden xmldump
    saved to directory /home/gayverjr/OpenCAP/molcas_tests
--- Module seward spent 2 seconds ---

*** symbolic link created: INPORB -> anion_xms.GssOrb
--- Start Module: scf at Mon Aug  3 23:03:58 2020 ---

()()()()()()()()()()()()()()()()()()()()()()()()()()()()()()()()()()()()()()()()()()()()()()()()()()

                                                &SCF

                                   only a single process is used
                       available to each process: 20 GB of memory, 16 threads
                                             pid: 16397
()()()()()()()()()()()()()()()()()()()()()()()()()()()()()()()()()()()()()()()()()()()()()()()()()()

++    Input section:
      --------------

      Header of the integral files:
      
       Integrals generated by seward 4.2.0  , Mon Aug  3 23:03:56 2020


      Cartesian coordinates in Angstrom:
      -----------------------------------------------------
      No.  Label        X            Y            Z        
      -----------------------------------------------------
       1   N1         0.00000000   0.00000000   0.54981512
       2   N2         0.00000000   0.00000000  -0.54981512
      -----------------------------------------------------
      Nuclear repulsion energy =   23.58036574
--

++    Orbital specifications:
      -----------------------

      Symmetry species               1
                                     a
      Frozen orbitals                0
      Occupied orbitals              7
      Secondary orbitals            39
      Deleted orbitals               0
      Total number of orbitals      46
      Number of basis functions     46
--

      Molecular charge                           0.000

++    Optimization specifications:
      ----------------------------

      SCF Algorithm: Conventional
      Minimized density differences are used
      Number of density matrices in core                5
      Maximum number of NDDO SCF iterations           400
      Maximum number of HF SCF iterations             400
      Threshold for SCF energy change            0.10E-08
      Threshold for density matrix               0.10E-03
      Threshold for Fock matrix                  0.15E-03
      Threshold for linear dependence            0.10E-08
      Threshold at which DIIS is turned on       0.15E+00
      Threshold at which QNR/C2DIIS is turned on 0.75E-01
      Threshold for Norm(delta) (QNR/C2DIIS)     0.20E-04
      DIIS extrapolation of the SCF procedure
      All orbitals punched on: SCFORB
--

      Input vectors read from INPORB
      Orbital file label: *Guess orbitals


++ Convergence information
                                   SCF        iterations: Energy and convergence statistics

Iter     Tot. SCF        One-elec.       Two-elec.     Energy      Max Dij or  Max Fij      DNorm      TNorm      AccCon     Time
         Energy          Energy          Energy        Change      Delta Norm                                                in Sec.
   1  -108.693128035  -191.877363861    59.603870090   0.00E+00    0.22E+00*   0.25E+00*    0.53E+01   0.56E+02   None         0.
   2  -108.948255825  -194.767092910    62.238471349  -0.26E+00*   0.56E-01*   0.40E-01*    0.27E+01   0.57E+02   EDIIS        0.
   3  -108.959634717  -193.904410185    61.364409732  -0.11E-01*   0.12E-01*   0.13E-01*    0.78E+00   0.57E+02   EDIIS        0.
   4  -108.960332670  -194.090240331    61.549541925  -0.70E-03*   0.46E-02*   0.24E-02*    0.89E-01   0.57E+02   c2DIIS       0.
   5  -108.960382997  -194.039821051    61.499072317  -0.50E-04*   0.11E-02*   0.74E-03*    0.98E-02   0.57E+02   QNRc2DIIS    0.
   6  -108.960386965  -194.048083629    61.507330928  -0.40E-05*   0.49E-03*   0.17E-03*    0.14E-02   0.57E+02   QNRc2DIIS    0.
   7  -108.960387367  -194.045791742    61.505038638  -0.40E-06*   0.19E-04    0.12E-04     0.94E-04   0.57E+02   QNRc2DIIS    0.
   8  -108.960387368  -194.045705053    61.504951949  -0.97E-09    0.38E-05    0.25E-05     0.11E-04   0.57E+02   QNRc2DIIS    0.

       Convergence after  8 Macro Iterations
--

 *****************************************************************************************************************************
 *                                                                                                                           *
 *                                             SCF/KS-DFT Program, Final results                                             *
 *                                                                                                                           *
 *                                                                                                                           *
 *                                                                                                                           *
 *                                                       Final Results                                                       *
 *                                                                                                                           *
 *****************************************************************************************************************************

::    Total SCF energy                               -108.9603873681
      One-electron energy                            -194.0457050529
      Two-electron energy                              61.5049519485
      Nuclear repulsion energy                         23.5803657363
      Kinetic energy (interpolated)                   108.6453015405
      Virial theorem                                    1.0029001330
      Total spin, S(S+1)                                0.0000000000
      Total spin, S                                     0.0000000000
      Max non-diagonal density matrix element           0.0000031640
      Max non-diagonal Fock matrix element              0.0000006471


      All orbitals with orbital energies smaller than  E(LUMO)+0.5 are printed

++    Molecular orbitals:
      -------------------

      Title: SCF orbitals

      Molecular orbitals for symmetry species 1: a  

          Orbital            1         2         3         4         5         6         7         8         9        10    
          Energy          -15.6991  -15.6957   -1.4779   -0.7818   -0.6342   -0.6146   -0.6146    0.1038    0.1239    0.1239
          Occ. No.          2.0000    2.0000    2.0000    2.0000    2.0000    2.0000    2.0000    0.0000    0.0000    0.0000

        1 N1     1s         0.7077   -0.7089   -0.0107    0.0004    0.0032   -0.0000   -0.0000    0.0176    0.0000    0.0000
        2 N1     2s         0.0038   -0.0065    0.6584   -0.6406   -0.2177    0.0000    0.0000   -0.0440    0.0000   -0.0000
        3 N1     *s        -0.0018    0.0304   -0.1799   -0.2363   -0.1547    0.0000    0.0000   -1.4069    0.0000    0.0000
        4 N1     *s        -0.0000    0.0098   -0.0047   -0.1565   -0.0476    0.0000    0.0000  -13.9086   -0.0000    0.0000
        5 N1     2px        0.0000   -0.0000   -0.0000   -0.0000    0.0000    0.1365    0.6158   -0.0000    0.0252    0.4519
        6 N1     *px       -0.0000    0.0000    0.0000    0.0000   -0.0000   -0.0105   -0.0473    0.0000    0.0089    0.1600
        7 N1     *px        0.0000   -0.0000   -0.0000   -0.0000    0.0000    0.0028    0.0125    0.0000    0.0762    1.3661
        8 N1     2py        0.0000   -0.0000   -0.0000    0.0000    0.0000    0.6158   -0.1365   -0.0000   -0.4519    0.0252
        9 N1     *py       -0.0000    0.0000    0.0000    0.0000   -0.0000   -0.0473    0.0105    0.0000   -0.1600    0.0089
       10 N1     *py        0.0000   -0.0000   -0.0000    0.0000    0.0000    0.0125   -0.0028    0.0000   -1.3661    0.0762
       11 N1     2pz       -0.0025    0.0031   -0.3202   -0.3171   -0.6680    0.0000    0.0000   -0.0342   -0.0000   -0.0000
       12 N1     *pz        0.0035   -0.0155    0.1091    0.1496    0.1052   -0.0000   -0.0000    0.9249   -0.0000   -0.0000
       13 N1     *pz        0.0003   -0.0021    0.0073    0.0221   -0.0011    0.0000    0.0000    4.0711    0.0000   -0.0000
       14 N1     *d2-       0.0000   -0.0000    0.0000    0.0000   -0.0000    0.0000    0.0000   -0.0000   -0.0000    0.0000
       15 N1     *d2-       0.0000    0.0000    0.0000    0.0000    0.0000    0.0000   -0.0000    0.0000    0.0000    0.0000
       16 N1     *d1-      -0.0000    0.0000    0.0000   -0.0000   -0.0000   -0.0427    0.0095    0.0000   -0.0216    0.0012
       17 N1     *d1-      -0.0000    0.0000    0.0000   -0.0000   -0.0000   -0.0162    0.0036   -0.0000    0.0415   -0.0023
       18 N1     *d0        0.0005   -0.0012    0.0286    0.0113    0.0243   -0.0000   -0.0000    0.0069   -0.0000   -0.0000
       19 N1     *d0       -0.0019    0.0033    0.0026   -0.0239    0.0034   -0.0000   -0.0000   -0.2329    0.0000    0.0000
       20 N1     *d1+      -0.0000    0.0000    0.0000    0.0000   -0.0000   -0.0095   -0.0427    0.0000    0.0012    0.0216
       21 N1     *d1+      -0.0000    0.0000    0.0000    0.0000   -0.0000   -0.0036   -0.0162   -0.0000   -0.0023   -0.0415
       22 N1     *d2+      -0.0000    0.0000   -0.0000    0.0000   -0.0000    0.0000   -0.0000   -0.0000    0.0000    0.0000
       23 N1     *d2+       0.0000    0.0000    0.0000   -0.0000   -0.0000   -0.0000    0.0000    0.0000    0.0000   -0.0000
       24 N2     1s         0.7077    0.7089   -0.0107   -0.0004    0.0032    0.0000    0.0000   -0.0176    0.0000    0.0000
       25 N2     2s         0.0038    0.0065    0.6584    0.6406   -0.2177    0.0000    0.0000    0.0440    0.0000    0.0000
       26 N2     *s        -0.0018   -0.0304   -0.1799    0.2363   -0.1547    0.0000    0.0000    1.4069   -0.0000   -0.0000
       27 N2     *s        -0.0000   -0.0098   -0.0047    0.1565   -0.0476    0.0000    0.0000   13.9086    0.0000   -0.0000
       28 N2     2px        0.0000   -0.0000   -0.0000   -0.0000    0.0000    0.1365    0.6158   -0.0000   -0.0252   -0.4519
       29 N2     *px       -0.0000    0.0000    0.0000    0.0000   -0.0000   -0.0105   -0.0473   -0.0000   -0.0089   -0.1600
       30 N2     *px        0.0000   -0.0000   -0.0000   -0.0000    0.0000    0.0028    0.0125   -0.0000   -0.0762   -1.3661
       31 N2     2py        0.0000   -0.0000   -0.0000    0.0000    0.0000    0.6158   -0.1365    0.0000    0.4519   -0.0252
       32 N2     *py       -0.0000    0.0000    0.0000   -0.0000   -0.0000   -0.0473    0.0105   -0.0000    0.1600   -0.0089
       33 N2     *py        0.0000   -0.0000   -0.0000    0.0000    0.0000    0.0125   -0.0028   -0.0000    1.3661   -0.0762
       34 N2     2pz        0.0025    0.0031    0.3202   -0.3171    0.6680   -0.0000   -0.0000   -0.0342   -0.0000    0.0000
       35 N2     *pz       -0.0035   -0.0155   -0.1091    0.1496   -0.1052    0.0000    0.0000    0.9249   -0.0000   -0.0000
       36 N2     *pz       -0.0003   -0.0021   -0.0073    0.0221    0.0011   -0.0000    0.0000    4.0711    0.0000   -0.0000
       37 N2     *d2-       0.0000    0.0000    0.0000   -0.0000   -0.0000    0.0000    0.0000    0.0000    0.0000   -0.0000
       38 N2     *d2-      -0.0000   -0.0000    0.0000   -0.0000    0.0000   -0.0000    0.0000   -0.0000   -0.0000   -0.0000
       39 N2     *d1-       0.0000   -0.0000   -0.0000    0.0000    0.0000    0.0427   -0.0095    0.0000   -0.0216    0.0012
       40 N2     *d1-       0.0000   -0.0000   -0.0000   -0.0000    0.0000    0.0162   -0.0036   -0.0000    0.0415   -0.0023
       41 N2     *d0        0.0005    0.0012    0.0286   -0.0113    0.0243   -0.0000   -0.0000   -0.0069   -0.0000   -0.0000
       42 N2     *d0       -0.0019   -0.0033    0.0026    0.0239    0.0034   -0.0000   -0.0000    0.2329   -0.0000   -0.0000
       43 N2     *d1+       0.0000   -0.0000   -0.0000   -0.0000    0.0000    0.0095    0.0427    0.0000    0.0012    0.0216
       44 N2     *d1+       0.0000   -0.0000   -0.0000   -0.0000    0.0000    0.0036    0.0162   -0.0000   -0.0023   -0.0415
       45 N2     *d2+      -0.0000   -0.0000   -0.0000   -0.0000   -0.0000    0.0000   -0.0000    0.0000   -0.0000   -0.0000
       46 N2     *d2+      -0.0000   -0.0000    0.0000    0.0000   -0.0000   -0.0000    0.0000   -0.0000   -0.0000    0.0000

          Orbital           11        12        13        14        15        16        17        18        19    
          Energy            0.1402    0.1504    0.1504    0.1962    0.2525    0.2525    0.3252    0.5860    0.5860
          Occ. No.          0.0000    0.0000    0.0000    0.0000    0.0000    0.0000    0.0000    0.0000    0.0000

        1 N1     1s        -0.0144    0.0000    0.0000    0.0012   -0.0000   -0.0000    0.0800    0.0000    0.0000
        2 N1     2s         0.0986    0.0000   -0.0000   -0.1184   -0.0000   -0.0000    0.4485    0.0000    0.0000
        3 N1     *s         0.4262   -0.0000    0.0000   -0.6249    0.0000   -0.0000   -4.4900   -0.0000   -0.0000
        4 N1     *s        -0.8372    0.0000    0.0000    0.3029    0.0000    0.0000  -27.4255   -0.0000   -0.0000
        5 N1     2px        0.0000   -0.0018   -0.1484    0.0000    0.5021   -0.0197   -0.0000    0.0000    0.0000
        6 N1     *px       -0.0000   -0.0020   -0.1592    0.0000    0.2042   -0.0080   -0.0000   -0.0000   -0.0000
        7 N1     *px        0.0000    0.0075    0.6068    0.0000   -1.9018    0.0745    0.0000    0.0000   -0.0000
        8 N1     2py       -0.0000   -0.1484    0.0018   -0.0000    0.0197    0.5021    0.0000   -0.0000    0.0000
        9 N1     *py        0.0000   -0.1592    0.0020    0.0000    0.0080    0.2042    0.0000   -0.0000    0.0000
       10 N1     *py        0.0000    0.6068   -0.0075    0.0000   -0.0745   -1.9018   -0.0000   -0.0000    0.0000
       11 N1     2pz        0.1322    0.0000    0.0000    0.0085   -0.0000    0.0000    0.0876    0.0000   -0.0000
       12 N1     *pz        0.1578    0.0000   -0.0000   -0.1511   -0.0000    0.0000    3.2888    0.0000    0.0000
       13 N1     *pz       -0.8522   -0.0000   -0.0000   -1.5603   -0.0000   -0.0000    6.4789    0.0000   -0.0000
       14 N1     *d2-       0.0000   -0.0000   -0.0000   -0.0000   -0.0000    0.0000    0.0000   -0.0041    0.0000
       15 N1     *d2-       0.0000    0.0000    0.0000    0.0000    0.0000    0.0000   -0.0000    0.5595   -0.0000
       16 N1     *d1-       0.0000    0.0167   -0.0002    0.0000   -0.0002   -0.0044   -0.0000   -0.0000    0.0000
       17 N1     *d1-      -0.0000   -0.0126    0.0002   -0.0000    0.0062    0.1571   -0.0000    0.0000   -0.0000
       18 N1     *d0       -0.0038    0.0000    0.0000   -0.0275   -0.0000    0.0000   -0.0325    0.0000   -0.0000
       19 N1     *d0       -0.0172   -0.0000    0.0000    0.1888    0.0000   -0.0000   -0.7099   -0.0000    0.0000
       20 N1     *d1+       0.0000    0.0002    0.0167   -0.0000   -0.0044    0.0002    0.0000    0.0000    0.0000
       21 N1     *d1+       0.0000   -0.0002   -0.0126   -0.0000    0.1571   -0.0062    0.0000    0.0000    0.0000
       22 N1     *d2+      -0.0000    0.0000   -0.0000    0.0000    0.0000   -0.0000    0.0000    0.0000    0.0041
       23 N1     *d2+       0.0000    0.0000    0.0000   -0.0000    0.0000    0.0000    0.0000   -0.0000   -0.5595
       24 N2     1s        -0.0144   -0.0000    0.0000    0.0012    0.0000   -0.0000   -0.0800   -0.0000   -0.0000
       25 N2     2s         0.0986   -0.0000    0.0000   -0.1184    0.0000   -0.0000   -0.4485   -0.0000   -0.0000
       26 N2     *s         0.4262    0.0000   -0.0000   -0.6249   -0.0000    0.0000    4.4900    0.0000    0.0000
       27 N2     *s        -0.8372   -0.0000   -0.0000    0.3029   -0.0000   -0.0000   27.4255    0.0000    0.0000
       28 N2     2px       -0.0000   -0.0018   -0.1484   -0.0000   -0.5021    0.0197   -0.0000   -0.0000    0.0000
       29 N2     *px        0.0000   -0.0020   -0.1592   -0.0000   -0.2042    0.0080    0.0000    0.0000   -0.0000
       30 N2     *px       -0.0000    0.0075    0.6068   -0.0000    1.9018   -0.0745    0.0000   -0.0000    0.0000
       31 N2     2py       -0.0000   -0.1484    0.0018    0.0000   -0.0197   -0.5021   -0.0000   -0.0000    0.0000
       32 N2     *py       -0.0000   -0.1592    0.0020   -0.0000   -0.0080   -0.2042    0.0000    0.0000   -0.0000
       33 N2     *py       -0.0000    0.6068   -0.0075   -0.0000    0.0745    1.9018    0.0000    0.0000   -0.0000
       34 N2     2pz       -0.1322    0.0000    0.0000   -0.0085   -0.0000    0.0000    0.0876    0.0000   -0.0000
       35 N2     *pz       -0.1578   -0.0000   -0.0000    0.1511   -0.0000    0.0000    3.2888    0.0000    0.0000
       36 N2     *pz        0.8522   -0.0000   -0.0000    1.5603    0.0000   -0.0000    6.4789    0.0000    0.0000
       37 N2     *d2-       0.0000   -0.0000   -0.0000   -0.0000   -0.0000    0.0000   -0.0000   -0.0041    0.0000
       38 N2     *d2-      -0.0000    0.0000    0.0000    0.0000   -0.0000   -0.0000   -0.0000    0.5595   -0.0000
       39 N2     *d1-      -0.0000   -0.0167    0.0002   -0.0000   -0.0002   -0.0044    0.0000    0.0000    0.0000
       40 N2     *d1-      -0.0000    0.0126   -0.0002   -0.0000    0.0062    0.1571   -0.0000    0.0000   -0.0000
       41 N2     *d0       -0.0038   -0.0000   -0.0000   -0.0275   -0.0000    0.0000    0.0325    0.0000    0.0000
       42 N2     *d0       -0.0172   -0.0000   -0.0000    0.1888    0.0000    0.0000    0.7099    0.0000    0.0000
       43 N2     *d1+       0.0000   -0.0002   -0.0167   -0.0000   -0.0044    0.0002   -0.0000   -0.0000   -0.0000
       44 N2     *d1+       0.0000    0.0002    0.0126   -0.0000    0.1571   -0.0062    0.0000    0.0000    0.0000
       45 N2     *d2+      -0.0000    0.0000    0.0000    0.0000   -0.0000   -0.0000    0.0000    0.0000    0.0041
       46 N2     *d2+      -0.0000   -0.0000   -0.0000    0.0000    0.0000   -0.0000   -0.0000   -0.0000   -0.5595
--


++    Molecular charges:
      ------------------

      Mulliken charges per centre and basis function type
      ---------------------------------------------------

                N1      N2    
      1s       2.0035  2.0035
      2s       1.8182  1.8182
      2px      1.0293  1.0293
      2pz      1.4186  1.4186
      2py      1.0293  1.0293
      *s       0.1195  0.1195
      *px     -0.0631 -0.0631
      *pz     -0.3607 -0.3607
      *py     -0.0631 -0.0631
      *d2+     0.0000  0.0000
      *d1+     0.0338  0.0338
      *d0      0.0009  0.0009
      *d1-     0.0338  0.0338
      *d2-     0.0000  0.0000
      Total    7.0000  7.0000

      N-E      0.0000 -0.0000

      Total electronic charge=   14.000000

      Total            charge=   -0.000000
--


++    Molecular properties:
      ---------------------

      Charge (e):
                      =   -0.0000
      Dipole Moment (Debye):
      Origin of the operator (Ang)=    0.0000    0.0000    0.0000
                   X= -8.7444E-19               Y=  2.8918E-18               Z=  4.8537E-14           Total=  4.8537E-14
      Quadrupole Moment (Debye*Ang):
      Origin of the operator (Ang)=    0.0000    0.0000    0.0000
                  XX= -1.0459E+01              XY= -1.8553E-15              XZ=  4.1866E-18              YY= -1.0459E+01
                  YZ=  4.0205E-18              ZZ= -1.1655E+01
      In traceless form (Debye*Ang)
                  XX=  5.9811E-01              XY= -2.7830E-15              XZ=  6.2799E-18              YY=  5.9811E-01
                  YZ=  6.0308E-18              ZZ= -1.1962E+00
--


  Input file to MOLDEN was generated!

 ###############################################################################
 ###############################################################################
 ###                                                                         ###
 ###                                                                         ###
 ###    WARNING: RunFile label nBas                                          ###
 ###    was used       71 times                                              ###
 ###                                                                         ###
 ###                                                                         ###
 ###############################################################################
 ###############################################################################
--- Stop Module: scf at Mon Aug  3 23:03:58 2020 /rc=_RC_ALL_IS_WELL_ ---
*** files: anion_xms.scf.molden anion_xms.ScfOrb anion_xms.scf.h5 xmldump
    saved to directory /home/gayverjr/OpenCAP/molcas_tests

*** symbolic link created: INPORB -> anion_xms.ScfOrb
--- Start Module: rasscf at Mon Aug  3 23:03:58 2020 ---

()()()()()()()()()()()()()()()()()()()()()()()()()()()()()()()()()()()()()()()()()()()()()()()()()()

                                              &RASSCF

                                   only a single process is used
                       available to each process: 20 GB of memory, 16 threads
                                             pid: 16640
()()()()()()()()()()()()()()()()()()()()()()()()()()()()()()()()()()()()()()()()()()()()()()()()()()


      Header of the ONEINT file:
      --------------------------
      
      Integrals generated by seward 4.2.0  , Mon Aug  3 23:03:56 2020


      OrdInt status: non-squared


      Cartesian coordinates in Angstrom:
      -----------------------------------------------------
      No.  Label        X            Y            Z        
      -----------------------------------------------------
       1   N1         0.00000000   0.00000000   0.54981512
       2   N2         0.00000000   0.00000000  -0.54981512
      -----------------------------------------------------
      Nuclear repulsion energy =   23.58036574

++    Wave function specifications:
      -----------------------------

      Number of closed shell electrons          10
      Number of electrons in active shells       4
      Max number of holes in RAS1 space          0
      Max nr of electrons in RAS3 space          0
      Number of inactive orbitals                5
      Number of active orbitals                  4
      Number of secondary orbitals              37
      Spin quantum number                      0.0
      State symmetry                             1
--

++    Orbital specifications:
      -----------------------

      Symmetry species                           1
                                                 a
      Frozen orbitals                            0
      Inactive orbitals                          5
      Active orbitals                            4
      RAS1 orbitals                              0
      RAS2 orbitals                              4
      RAS3 orbitals                              0
      Secondary orbitals                        37
      Deleted orbitals                           0
      Number of basis functions                 46
--

++    CI expansion specifications:
      ----------------------------

      Number of CSFs                            20
      Number of determinants                    21
      Number of root(s) required                10
      Root chosen for geometry opt.             10
      CI roots used                              1     2     3     4     5     6     7     8     9    10
      weights                                0.100 0.100 0.100 0.100 0.100 0.100 0.100 0.100 0.100 0.100
      highest root included in the CI           10
      max. size of the explicit Hamiltonian     20
--

++    Optimization specifications:
      ----------------------------

      RASSCF algorithm: Conventional
      Maximum number of macro iterations       200
      Maximum number of SX iterations          100
      Threshold for RASSCF energy            0.100E-07
      Threshold for max MO rotation          0.100E+00
      Threshold for max BLB element          0.100E-03
      Level shift parameter                  0.500E+00
      Make Quasi-Newton update
--

      The MO-coefficients are taken from the file:
      INPORB                                                                                                                          
      Title: SCF orbitals                                                                  

      Total molecular charge    0.00

      ************************************************************************************************************************
      *                                                                                                                      *
      *                                            Wave function control section                                             *
      *                                                                                                                      *
      ************************************************************************************************************************


                                         RASSCF iterations: Energy and convergence statistics
                                         ----------------------------------------------------

      Iter CI   SX   CI       RASSCF       Energy    max ROT     max BLB   max BLB  Level Ln srch  Step   QN   Walltime
          iter iter root      energy       change     param      element    value   shift minimum  type update hh:mm:ss
 Nr of preliminary CI iterations:   1
        1   1   15    0  -108.21720876    0.00E+00  -0.21E+00*   9  16 1  0.19E+00*  0.40   0.00    SX    NO    0:00:00
        2   1    8    0  -108.32467919   -0.11E+00* -0.13E+00*   9  16 1  0.11E+00*  0.36   0.00    SX    NO    0:00:00
        3   1    6    0  -108.35075910   -0.26E-01* -0.83E-01    9  16 1  0.69E-01*  0.34   0.00    SX    NO    0:00:00
        4   1    5    0  -108.36136493   -0.11E-01*  0.52E-01    9  16 1  0.43E-01*  0.34   0.00    SX    NO    0:00:00
        5   1    5    0  -108.36557050   -0.42E-02*  0.67E-01    9  16 1  0.26E-01*  0.34   2.50    LS   YES    0:00:00
        6   1    5    0  -108.36810134   -0.25E-02*  0.19E-01    9  16 1  0.55E-02*  0.34   1.29    QN   YES    0:00:00
        7   1    4    0  -108.36828473   -0.18E-03*  0.73E-02    5  11 1 -0.17E-02*  0.34   1.16    QN   YES    0:00:00
        8   1    4    0  -108.36830527   -0.21E-04*  0.71E-02    8  17 1  0.98E-03*  0.34   1.98    LS   YES    0:00:00
        9   1    4    0  -108.36831192   -0.67E-05* -0.28E-02    9  16 1 -0.13E-02*  0.34   1.01    QN   YES    0:00:00
       10   1    4    0  -108.36831884   -0.69E-05* -0.20E-02    5  11 1  0.53E-03*  0.34   1.74    LS   YES    0:00:00
       11   1    4    0  -108.36832038   -0.15E-05*  0.60E-03    5  11 1  0.57E-03*  0.34   1.01    QN   YES    0:00:00
       12   1    4    0  -108.36832083   -0.45E-06*  0.52E-03    5  11 1  0.27E-03*  0.34   1.87    LS   YES    0:00:00
       13   1    3    0  -108.36832095   -0.12E-06* -0.49E-04    4  21 1  0.54E-04   0.34   1.00    QN   YES    0:00:00
       14   1    3    0  -108.36832095   -0.53E-08   0.20E-04    4  21 1  0.20E-04   0.34   1.45    QN   YES    0:00:00
      Convergence after 14 iterations
       15   1    3    0  -108.36832096   -0.81E-09   0.20E-04    9  44 1  0.18E-05   0.34   1.45    QN   YES    0:00:00

      ************************************************************************************************************************
                                                      Wave function printout:
                       occupation of active orbitals, and spin coupling of open shells (u,d: Spin up or down)
      ************************************************************************************************************************

      Note: transformation to natural orbitals
      has been made, which may change the order of the CSFs.

      printout of CI-coefficients larger than  0.05 for root  1
      energy=    -108.968915
      conf/sym  1111     Coeff  Weight
             1  2200  -0.98395 0.96816
            14  0202   0.17789 0.03164

      printout of CI-coefficients larger than  0.05 for root  2
      energy=    -108.634914
      conf/sym  1111     Coeff  Weight
             3  2u0d   1.00000 1.00000

      printout of CI-coefficients larger than  0.05 for root  3
      energy=    -108.474725
      conf/sym  1111     Coeff  Weight
             2  2ud0   0.98681 0.97380
            19  0ud2  -0.16187 0.02620

      printout of CI-coefficients larger than  0.05 for root  4
      energy=    -108.448932
      conf/sym  1111     Coeff  Weight
             4  u2d0  -0.99985 0.99970

      printout of CI-coefficients larger than  0.05 for root  5
      energy=    -108.399557
      conf/sym  1111     Coeff  Weight
             5  u20d  -1.00000 1.00000

      printout of CI-coefficients larger than  0.05 for root  6
      energy=    -108.251574
      conf/sym  1111     Coeff  Weight
             8  2002   0.98505 0.97033
            14  0202  -0.17137 0.02937

      printout of CI-coefficients larger than  0.05 for root  7
      energy=    -108.211982
      conf/sym  1111     Coeff  Weight
            11  ud02   0.99999 0.99998

      printout of CI-coefficients larger than  0.05 for root  8
      energy=    -108.127613
      conf/sym  1111     Coeff  Weight
            10  udud   0.84772 0.71863
            15  uudd  -0.53044 0.28137

      printout of CI-coefficients larger than  0.05 for root  9
      energy=    -108.096486
      conf/sym  1111     Coeff  Weight
             1  2200   0.17762 0.03155
             8  2002   0.17164 0.02946
            14  0202   0.96900 0.93896

      printout of CI-coefficients larger than  0.05 for root 10
      energy=    -108.068510
      conf/sym  1111     Coeff  Weight
             7  20ud   0.94738 0.89754
            13  02ud  -0.32010 0.10246

      Natural orbitals and occupation numbers for root  1
      sym 1:   1.936713   1.999607   0.000003   0.063678

      Natural orbitals and occupation numbers for root  2
      sym 1:   1.999998   1.000000   0.000002   1.000000

      Natural orbitals and occupation numbers for root  3
      sym 1:   1.947594   1.000000   1.000000   0.052406

      Natural orbitals and occupation numbers for root  4
      sym 1:   1.000000   1.999396   1.000000   0.000604

      Natural orbitals and occupation numbers for root  5
      sym 1:   1.000000   1.999998   0.000002   1.000000

      Natural orbitals and occupation numbers for root  6
      sym 1:   1.941261   0.059316   0.000034   1.999389

      Natural orbitals and occupation numbers for root  7
      sym 1:   1.000000   1.000000   0.000042   1.999958

      Natural orbitals and occupation numbers for root  8
      sym 1:   1.000000   1.000000   1.000000   1.000000

      Natural orbitals and occupation numbers for root  9
      sym 1:   0.122021   1.941074   0.000065   1.936840

      Natural orbitals and occupation numbers for root 10
      sym 1:   1.795075   0.204925   1.000000   1.000000

      ************************************************************************************************************************
      *                                                                                                                      *
      *                                                    Final results                                                     *
      *                                                                                                                      *
      ************************************************************************************************************************


++    Wave function specifications:
      -----------------------------

      Number of closed shell electrons          10
      Number of electrons in active shells       4
      Max number of holes in RAS1 space          0
      Max nr of electrons in RAS3 space          0
      Number of inactive orbitals                5
      Number of active orbitals                  4
      Number of secondary orbitals              37
      Spin quantum number                      0.0
      State symmetry                             1
--

++    Orbital specifications:
      -----------------------

      Symmetry species                           1
                                                 a
      Frozen orbitals                            0
      Inactive orbitals                          5
      Active orbitals                            4
      RAS1 orbitals                              0
      RAS2 orbitals                              4
      RAS3 orbitals                              0
      Secondary orbitals                        37
      Deleted orbitals                           0
      Number of basis functions                 46
--

++    CI expansion specifications:
      ----------------------------

      Number of CSFs                            20
      Number of determinants                    21
      Number of root(s) required                10
      CI roots used                              1     2     3     4     5     6     7     8     9    10
      weights                                0.100 0.100 0.100 0.100 0.100 0.100 0.100 0.100 0.100 0.100
      highest root included in the CI           10
      Root passed to geometry opt.              10
--

++    Final optimization conditions:
      ------------------------------

      Average CI energy                            -108.36832096
      RASSCF energy for state 10                   -108.06850983
      Super-CI energy                                -0.00000000
      RASSCF energy change                           -0.00000000
      Max change in MO coefficients              -0.338E-03
      Max non-diagonal density matrix element     0.199E-04
      Maximum BLB matrix element                  0.183E-05
      (orbital pair   9,  44 in symmetry   1)
      Norm of electronic gradient            0.252E+00
--


      Final state energy(ies):
      ------------------------

::    RASSCF root number  1 Total energy:   -108.96891532
::    RASSCF root number  2 Total energy:   -108.63491415
::    RASSCF root number  3 Total energy:   -108.47472527
::    RASSCF root number  4 Total energy:   -108.44893205
::    RASSCF root number  5 Total energy:   -108.39955701
::    RASSCF root number  6 Total energy:   -108.25157398
::    RASSCF root number  7 Total energy:   -108.21198244
::    RASSCF root number  8 Total energy:   -108.12761321
::    RASSCF root number  9 Total energy:   -108.09648630
::    RASSCF root number 10 Total energy:   -108.06850983

++    Molecular orbitals:
      -------------------

      Pseudonatural active orbitals and approximate occupation numbers




      Molecular orbitals for symmetry species 1: a  


      Orbital                 1         2         3         4         5         6         7         8         9        10
      Energy           -15.8220  -15.8192   -1.6182   -0.8809   -0.7283    0.0000    0.0000    0.0000    0.0000    0.0716
      Occ. No.           2.0000    2.0000    2.0000    2.0000    2.0000    1.3743    1.2204    0.4000    1.0053    0.0000

     1 N1     1s         0.7080   -0.7089   -0.0066   -0.0024    0.0002   -0.0000   -0.0000    0.0030    0.0000    0.0000
     2 N1     2s         0.0045   -0.0068    0.6691   -0.6692   -0.2606    0.0000   -0.0000   -0.1425    0.0000   -0.0000
     3 N1     *s        -0.0021    0.0264   -0.2051   -0.2846   -0.1418    0.0000   -0.0000   -0.9263    0.0000    0.0000
     4 N1     *s        -0.0002    0.0077   -0.0069   -0.1121   -0.0329    0.0000   -0.0000   -8.8864    0.0000    0.0000
     5 N1     2px        0.0000   -0.0000    0.0000   -0.0000    0.0000   -0.0371    0.6439   -0.0000    0.0413    0.5591
     6 N1     *px       -0.0000    0.0000   -0.0000    0.0000   -0.0000    0.0046   -0.0645    0.0000    0.0126    0.2628
     7 N1     *px        0.0000   -0.0000   -0.0000    0.0000    0.0000   -0.0001    0.0032    0.0000    0.0120    0.9375
     8 N1     2py        0.0000   -0.0000   -0.0000    0.0000    0.0000    0.6655    0.0359    0.0000   -0.7401    0.0312
     9 N1     *py       -0.0000    0.0000    0.0000    0.0000   -0.0000   -0.0821   -0.0036   -0.0000   -0.2262    0.0147
    10 N1     *py        0.0000   -0.0000   -0.0000    0.0000    0.0000    0.0011    0.0002   -0.0000   -0.2150    0.0523
    11 N1     2pz       -0.0034    0.0046   -0.3490   -0.3068   -0.6700    0.0000    0.0000   -0.0395   -0.0000   -0.0000
    12 N1     *pz        0.0046   -0.0141    0.1206    0.1937    0.1213   -0.0000    0.0000    0.5622   -0.0000   -0.0000
    13 N1     *pz        0.0003   -0.0016    0.0088    0.0126    0.0031   -0.0000    0.0000    2.8511   -0.0000    0.0000
    14 N1     *d2-      -0.0000    0.0000    0.0001    0.0001    0.0000   -0.0000    0.0000   -0.0003   -0.0000    0.0000
    15 N1     *d2-       0.0000    0.0000    0.0000    0.0003   -0.0000    0.0000    0.0000    0.0004    0.0000    0.0000
    16 N1     *d1-      -0.0000    0.0000    0.0000   -0.0000   -0.0000   -0.0483   -0.0029   -0.0000   -0.0091    0.0008
    17 N1     *d1-      -0.0000    0.0000   -0.0000   -0.0000   -0.0000   -0.0147   -0.0013   -0.0000    0.0389   -0.0031
    18 N1     *d0        0.0004   -0.0016    0.0346    0.0184    0.0325   -0.0000    0.0000    0.0104   -0.0000   -0.0000
    19 N1     *d0       -0.0023    0.0029    0.0040   -0.0239    0.0102    0.0000   -0.0000   -0.1358    0.0000    0.0000
    20 N1     *d1+      -0.0000    0.0000   -0.0000    0.0000   -0.0000    0.0027   -0.0521    0.0000    0.0005    0.0142
    21 N1     *d1+      -0.0000    0.0000    0.0000   -0.0000   -0.0000    0.0008   -0.0225   -0.0000   -0.0022   -0.0558
    22 N1     *d2+      -0.0001    0.0002    0.0012    0.0005    0.0004    0.0000   -0.0000   -0.0029    0.0000    0.0000
    23 N1     *d2+       0.0000    0.0000    0.0002    0.0025   -0.0004   -0.0000    0.0000    0.0039   -0.0000   -0.0000
    24 N2     1s         0.7080    0.7089   -0.0066    0.0024    0.0002    0.0000   -0.0000   -0.0030    0.0000    0.0000
    25 N2     2s         0.0045    0.0068    0.6691    0.6692   -0.2606   -0.0000    0.0000    0.1425    0.0000    0.0000
    26 N2     *s        -0.0021   -0.0264   -0.2051    0.2846   -0.1418   -0.0000    0.0000    0.9263   -0.0000   -0.0000
    27 N2     *s        -0.0002   -0.0077   -0.0069    0.1121   -0.0329   -0.0000    0.0000    8.8864   -0.0000   -0.0000
    28 N2     2px        0.0000   -0.0000    0.0000   -0.0000    0.0000   -0.0371    0.6439   -0.0000   -0.0413   -0.5591
    29 N2     *px       -0.0000    0.0000    0.0000   -0.0000   -0.0000    0.0046   -0.0645    0.0000   -0.0126   -0.2628
    30 N2     *px        0.0000   -0.0000    0.0000   -0.0000    0.0000   -0.0001    0.0032   -0.0000   -0.0120   -0.9375
    31 N2     2py        0.0000   -0.0000   -0.0000    0.0000    0.0000    0.6655    0.0359    0.0000    0.7401   -0.0312
    32 N2     *py       -0.0000    0.0000   -0.0000   -0.0000   -0.0000   -0.0821   -0.0036   -0.0000    0.2262   -0.0147
    33 N2     *py        0.0000   -0.0000    0.0000   -0.0000    0.0000    0.0011    0.0002    0.0000    0.2150   -0.0523
    34 N2     2pz        0.0034    0.0046    0.3490   -0.3068    0.6700   -0.0000   -0.0000   -0.0395   -0.0000    0.0000
    35 N2     *pz       -0.0046   -0.0141   -0.1206    0.1937   -0.1213   -0.0000    0.0000    0.5622   -0.0000   -0.0000
    36 N2     *pz       -0.0003   -0.0016   -0.0088    0.0126   -0.0031   -0.0000    0.0000    2.8511   -0.0000   -0.0000
    37 N2     *d2-      -0.0000   -0.0000    0.0001   -0.0001    0.0000    0.0000    0.0000    0.0003    0.0000   -0.0000
    38 N2     *d2-       0.0000   -0.0000    0.0000   -0.0003   -0.0000   -0.0000   -0.0000   -0.0004    0.0000   -0.0000
    39 N2     *d1-       0.0000   -0.0000   -0.0000    0.0000    0.0000    0.0483    0.0029    0.0000   -0.0091    0.0008
    40 N2     *d1-       0.0000   -0.0000    0.0000   -0.0000    0.0000    0.0147    0.0013   -0.0000    0.0389   -0.0031
    41 N2     *d0        0.0004    0.0016    0.0346   -0.0184    0.0325    0.0000   -0.0000   -0.0104   -0.0000   -0.0000
    42 N2     *d0       -0.0023   -0.0029    0.0040    0.0239    0.0102   -0.0000    0.0000    0.1358   -0.0000    0.0000
    43 N2     *d1+       0.0000   -0.0000    0.0000   -0.0000    0.0000   -0.0027    0.0521   -0.0000    0.0005    0.0142
    44 N2     *d1+       0.0000   -0.0000   -0.0000   -0.0000    0.0000   -0.0008    0.0225   -0.0000   -0.0022   -0.0558
    45 N2     *d2+      -0.0001   -0.0002    0.0012   -0.0005    0.0004   -0.0000   -0.0000    0.0029   -0.0000   -0.0000
    46 N2     *d2+       0.0000   -0.0000    0.0002   -0.0025   -0.0004    0.0000   -0.0000   -0.0039   -0.0000    0.0000


      Orbital                11        12        13
      Energy             0.1119    0.1193    0.1242
      Occ. No.           0.0000    0.0000    0.0000

     1 N1     1s        -0.0089   -0.0000    0.0000
     2 N1     2s         0.1434    0.0000    0.0000
     3 N1     *s         0.5077    0.0000    0.0000
     4 N1     *s        -0.8726   -0.0000    0.0000
     5 N1     2px        0.0000   -0.1498    0.0082
     6 N1     *px        0.0000   -0.1380    0.0075
     7 N1     *px       -0.0000    0.6007   -0.0335
     8 N1     2py        0.0000   -0.0084   -0.1464
     9 N1     *py        0.0000   -0.0077   -0.1354
    10 N1     *py       -0.0000    0.0335    0.6000
    11 N1     2pz        0.1226    0.0000    0.0000
    12 N1     *pz        0.1701    0.0000    0.0000
    13 N1     *pz       -0.4738   -0.0000   -0.0000
    14 N1     *d2-       0.0001   -0.0000   -0.0000
    15 N1     *d2-      -0.0008    0.0000    0.0000
    16 N1     *d1-      -0.0000    0.0011    0.0187
    17 N1     *d1-       0.0000   -0.0009   -0.0156
    18 N1     *d0        0.0003   -0.0000    0.0000
    19 N1     *d0       -0.0441   -0.0000   -0.0000
    20 N1     *d1+      -0.0000    0.0200   -0.0010
    21 N1     *d1+       0.0000   -0.0158    0.0009
    22 N1     *d2+       0.0013   -0.0000    0.0000
    23 N1     *d2+      -0.0070    0.0000    0.0000
    24 N2     1s        -0.0089   -0.0000   -0.0000
    25 N2     2s         0.1434    0.0000    0.0000
    26 N2     *s         0.5077    0.0000    0.0000
    27 N2     *s        -0.8726   -0.0000   -0.0000
    28 N2     2px       -0.0000   -0.1498    0.0082
    29 N2     *px        0.0000   -0.1380    0.0075
    30 N2     *px       -0.0000    0.6007   -0.0335
    31 N2     2py        0.0000   -0.0084   -0.1464
    32 N2     *py        0.0000   -0.0077   -0.1354
    33 N2     *py       -0.0000    0.0335    0.6000
    34 N2     2pz       -0.1226   -0.0000   -0.0000
    35 N2     *pz       -0.1701   -0.0000   -0.0000
    36 N2     *pz        0.4738    0.0000    0.0000
    37 N2     *d2-       0.0001   -0.0000   -0.0000
    38 N2     *d2-      -0.0008    0.0000    0.0000
    39 N2     *d1-       0.0000   -0.0011   -0.0187
    40 N2     *d1-       0.0000    0.0009    0.0156
    41 N2     *d0        0.0003   -0.0000   -0.0000
    42 N2     *d0       -0.0441   -0.0000   -0.0000
    43 N2     *d1+       0.0000   -0.0200    0.0010
    44 N2     *d1+       0.0000    0.0158   -0.0009
    45 N2     *d2+       0.0013    0.0000   -0.0000
    46 N2     *d2+      -0.0070   -0.0000   -0.0000
--

      Von Neumann Entropy (Root  1) =  0.20357


      Mulliken population analysis for root number:  1
      -----------------------------------------------


++    Molecular charges:
      ------------------

      Mulliken charges per centre and basis function type
      ---------------------------------------------------

                N1      N2    
      1s       2.0038  2.0038
      2s       1.8934  1.8934
      2px      1.0493  1.0493
      2pz      1.4140  1.4140
      2py      1.0768  1.0768
      *s       0.1003  0.1003
      *px     -0.0937 -0.0937
      *pz     -0.4159 -0.4159
      *py     -0.1098 -0.1098
      *d2+     0.0000  0.0000
      *d1+     0.0442  0.0442
      *d0      0.0044  0.0044
      *d1-     0.0332  0.0332
      *d2-     0.0000  0.0000
      Total    7.0000  7.0000

      N-E      0.0000 -0.0000

      Total electronic charge=   14.000000

      Total            charge=   -0.000000
--



      Expectation values of various properties for root number:  1
      -----------------------------------------------------------


++    Molecular properties:
      ---------------------

      Charge (e):
                      =   -0.0000
      Dipole Moment (Debye):
      Origin of the operator (Ang)=    0.0000    0.0000    0.0000
                   X=  7.5728E-16               Y=  3.4831E-16               Z=  4.2188E-13           Total=  4.2188E-13
      Quadrupole Moment (Debye*Ang):
      Origin of the operator (Ang)=    0.0000    0.0000    0.0000
                  XX= -9.9388E+00              XY= -4.6197E-03              XZ=  5.0218E-15              YY= -9.8563E+00
                  YZ=  3.0949E-16              ZZ= -1.0513E+01
      In traceless form (Debye*Ang)
                  XX=  2.4602E-01              XY= -6.9295E-03              XZ=  7.5327E-15              YY=  3.6989E-01
                  YZ=  4.6424E-16              ZZ= -6.1591E-01
--

      Von Neumann Entropy (Root  2) =  1.00002


      Mulliken population analysis for root number:  2
      -----------------------------------------------


++    Molecular charges:
      ------------------

      Mulliken charges per centre and basis function type
      ---------------------------------------------------

                N1      N2    
      1s       2.0038  2.0038
      2s       1.8934  1.8934
      2px      0.5277  0.5277
      2pz      1.4140  1.4140
      2py      1.5003  1.5003
      *s       0.1003  0.1003
      *px     -0.0468 -0.0468
      *pz     -0.4159 -0.4159
      *py     -0.0203 -0.0203
      *d2+     0.0000  0.0000
      *d1+     0.0221  0.0221
      *d0      0.0044  0.0044
      *d1-     0.0169  0.0169
      *d2-     0.0000  0.0000
      Total    7.0000  7.0000

      N-E      0.0000 -0.0000

      Total electronic charge=   14.000000

      Total            charge=   -0.000000
--



      Expectation values of various properties for root number:  2
      -----------------------------------------------------------


++    Molecular properties:
      ---------------------

      Charge (e):
                      =   -0.0000
      Dipole Moment (Debye):
      Origin of the operator (Ang)=    0.0000    0.0000    0.0000
                   X=  2.7414E-15               Y=  5.7880E-14               Z=  1.3041E-13           Total=  1.4271E-13
      Quadrupole Moment (Debye*Ang):
      Origin of the operator (Ang)=    0.0000    0.0000    0.0000
                  XX= -8.7503E+00              XY=  1.5535E-01              XZ=  6.9633E-14              YY= -1.1527E+01
                  YZ=  1.5973E-15              ZZ= -1.2236E+01
      In traceless form (Debye*Ang)
                  XX=  3.1315E+00              XY=  2.3302E-01              XZ=  1.0445E-13              YY= -1.0340E+00
                  YZ=  2.3959E-15              ZZ= -2.0975E+00
--

      Von Neumann Entropy (Root  3) =  1.17498


      Mulliken population analysis for root number:  3
      -----------------------------------------------


++    Molecular charges:
      ------------------

      Mulliken charges per centre and basis function type
      ---------------------------------------------------

                N1      N2    
      1s       2.0038  2.0038
      2s       1.8960  1.8960
      2px      0.5264  0.5264
      2pz      1.4121  1.4121
      2py      1.0764  1.0764
      *s      -1.6263 -1.6263
      *px     -0.0470 -0.0470
      *pz      1.8249  1.8249
      *py     -0.1114 -0.1114
      *d2+     0.0000  0.0000
      *d1+     0.0222  0.0222
      *d0     -0.0104 -0.0104
      *d1-     0.0335  0.0335
      *d2-     0.0000  0.0000
      Total    7.0000  7.0000

      N-E      0.0000 -0.0000

      Total electronic charge=   14.000000

      Total            charge=   -0.000000
--



      Expectation values of various properties for root number:  3
      -----------------------------------------------------------


++    Molecular properties:
      ---------------------

      Charge (e):
                      =   -0.0000
      Dipole Moment (Debye):
      Origin of the operator (Ang)=    0.0000    0.0000    0.0000
                   X= -4.7676E-15               Y= -7.1814E-14               Z= -5.8804E-12           Total=  5.8808E-12
      Quadrupole Moment (Debye*Ang):
      Origin of the operator (Ang)=    0.0000    0.0000    0.0000
                  XX= -1.6011E+01              XY=  6.7455E-02              XZ= -7.5283E-15              YY= -1.7217E+01
                  YZ= -1.4618E-15              ZZ= -4.5090E+01
      In traceless form (Debye*Ang)
                  XX=  1.5142E+01              XY=  1.0118E-01              XZ= -1.1292E-14              YY=  1.3333E+01
                  YZ= -2.1928E-15              ZZ= -2.8475E+01
--

      Von Neumann Entropy (Root  4) =  1.00397


      Mulliken population analysis for root number:  4
      -----------------------------------------------


++    Molecular charges:
      ------------------

      Mulliken charges per centre and basis function type
      ---------------------------------------------------

                N1      N2    
      1s       2.0038  2.0038
      2s       1.8960  1.8960
      2px      1.0475  1.0475
      2pz      1.4121  1.4121
      2py      0.5441  0.5441
      *s      -1.6263 -1.6263
      *px     -0.0936 -0.0936
      *pz      1.8249  1.8249
      *py     -0.0601 -0.0601
      *d2+     0.0000  0.0000
      *d1+     0.0442  0.0442
      *d0     -0.0104 -0.0104
      *d1-     0.0178  0.0178
      *d2-     0.0000  0.0000
      Total    7.0000  7.0000

      N-E      0.0000 -0.0000

      Total electronic charge=   14.000000

      Total            charge=   -0.000000
--



      Expectation values of various properties for root number:  4
      -----------------------------------------------------------


++    Molecular properties:
      ---------------------

      Charge (e):
                      =   -0.0000
      Dipole Moment (Debye):
      Origin of the operator (Ang)=    0.0000    0.0000    0.0000
                   X= -5.4036E-15               Y=  1.6402E-13               Z= -6.7112E-12           Total=  6.7132E-12
      Quadrupole Moment (Debye*Ang):
      Origin of the operator (Ang)=    0.0000    0.0000    0.0000
                  XX= -1.7341E+01              XY= -7.6899E-02              XZ=  6.4919E-15              YY= -1.5966E+01
                  YZ= -1.7585E-15              ZZ= -4.4962E+01
      In traceless form (Debye*Ang)
                  XX=  1.3123E+01              XY= -1.1535E-01              XZ=  9.7378E-15              YY=  1.5185E+01
                  YZ= -2.6377E-15              ZZ= -2.8309E+01
--

      Von Neumann Entropy (Root  5) =  1.00002


      Mulliken population analysis for root number:  5
      -----------------------------------------------


++    Molecular charges:
      ------------------

      Mulliken charges per centre and basis function type
      ---------------------------------------------------

                N1      N2    
      1s       2.0038  2.0038
      2s       1.8934  1.8934
      2px      1.0491  1.0491
      2pz      1.4140  1.4140
      2py      0.9614  0.9614
      *s       0.1003  0.1003
      *px     -0.0933 -0.0933
      *pz     -0.4159 -0.4159
      *py      0.0393  0.0393
      *d2+     0.0000  0.0000
      *d1+     0.0441  0.0441
      *d0      0.0044  0.0044
      *d1-    -0.0007 -0.0007
      *d2-     0.0000  0.0000
      Total    7.0000  7.0000

      N-E      0.0000 -0.0000

      Total electronic charge=   14.000000

      Total            charge=   -0.000000
--



      Expectation values of various properties for root number:  5
      -----------------------------------------------------------


++    Molecular properties:
      ---------------------

      Charge (e):
                      =   -0.0000
      Dipole Moment (Debye):
      Origin of the operator (Ang)=    0.0000    0.0000    0.0000
                   X=  9.3936E-15               Y= -1.5389E-13               Z= -7.3489E-14           Total=  1.7080E-13
      Quadrupole Moment (Debye*Ang):
      Origin of the operator (Ang)=    0.0000    0.0000    0.0000
                  XX= -1.0089E+01              XY=  1.1818E-02              XZ= -7.6304E-15              YY= -1.0300E+01
                  YZ=  4.0769E-14              ZZ= -1.2202E+01
      In traceless form (Debye*Ang)
                  XX=  1.1623E+00              XY=  1.7727E-02              XZ= -1.1446E-14              YY=  8.4543E-01
                  YZ=  6.1154E-14              ZZ= -2.0077E+00
--

      Von Neumann Entropy (Root  6) =  0.19298


      Mulliken population analysis for root number:  6
      -----------------------------------------------


++    Molecular charges:
      ------------------

      Mulliken charges per centre and basis function type
      ---------------------------------------------------

                N1      N2    
      1s       2.0038  2.0038
      2s       1.8934  1.8934
      2px      0.0369  0.0369
      2pz      1.4140  1.4140
      2py      1.8843  1.8843
      *s       0.1003  0.1003
      *px     -0.0025 -0.0025
      *pz     -0.4159 -0.4159
      *py      0.0827  0.0827
      *d2+     0.0000  0.0000
      *d1+     0.0013  0.0013
      *d0      0.0044  0.0044
      *d1-    -0.0027 -0.0027
      *d2-     0.0000  0.0000
      Total    7.0000  7.0000

      N-E      0.0000 -0.0000

      Total electronic charge=   14.000000

      Total            charge=   -0.000000
--



      Expectation values of various properties for root number:  6
      -----------------------------------------------------------


++    Molecular properties:
      ---------------------

      Charge (e):
                      =   -0.0000
      Dipole Moment (Debye):
      Origin of the operator (Ang)=    0.0000    0.0000    0.0000
                   X=  1.0842E-14               Y=  3.2764E-16               Z= -1.5596E-13           Total=  1.5633E-13
      Quadrupole Moment (Debye*Ang):
      Origin of the operator (Ang)=    0.0000    0.0000    0.0000
                  XX= -7.6509E+00              XY=  3.0796E-01              XZ= -3.0153E-16              YY= -1.3156E+01
                  YZ=  2.4143E-16              ZZ= -1.4072E+01
      In traceless form (Debye*Ang)
                  XX=  5.9631E+00              XY=  4.6195E-01              XZ= -4.5229E-16              YY= -2.2947E+00
                  YZ=  3.6215E-16              ZZ= -3.6684E+00
--

      Von Neumann Entropy (Root  7) =  1.00035


      Mulliken population analysis for root number:  7
      -----------------------------------------------


++    Molecular charges:
      ------------------

      Mulliken charges per centre and basis function type
      ---------------------------------------------------

                N1      N2    
      1s       2.0038  2.0038
      2s       1.8934  1.8934
      2px      0.5274  0.5274
      2pz      1.4140  1.4140
      2py      1.3773  1.3773
      *s       0.1002  0.1002
      *px     -0.0463 -0.0463
      *pz     -0.4158 -0.4158
      *py      0.1389  0.1389
      *d2+     0.0000  0.0000
      *d1+     0.0220  0.0220
      *d0      0.0044  0.0044
      *d1-    -0.0193 -0.0193
      *d2-     0.0000  0.0000
      Total    7.0000  7.0000

      N-E      0.0000 -0.0000

      Total electronic charge=   14.000000

      Total            charge=   -0.000000
--



      Expectation values of various properties for root number:  7
      -----------------------------------------------------------


++    Molecular properties:
      ---------------------

      Charge (e):
                      =   -0.0000
      Dipole Moment (Debye):
      Origin of the operator (Ang)=    0.0000    0.0000    0.0000
                   X=  5.9607E-15               Y=  8.5829E-16               Z= -1.0268E-13           Total=  1.0286E-13
      Quadrupole Moment (Debye*Ang):
      Origin of the operator (Ang)=    0.0000    0.0000    0.0000
                  XX= -8.9100E+00              XY=  1.7296E-01              XZ=  1.0087E-14              YY= -1.2002E+01
                  YZ=  1.9298E-15              ZZ= -1.4041E+01
      In traceless form (Debye*Ang)
                  XX=  4.1114E+00              XY=  2.5944E-01              XZ=  1.5131E-14              YY= -5.2634E-01
                  YZ=  2.8947E-15              ZZ= -3.5851E+00
--

      Von Neumann Entropy (Root  8) =  2.00000


      Mulliken population analysis for root number:  8
      -----------------------------------------------


++    Molecular charges:
      ------------------

      Mulliken charges per centre and basis function type
      ---------------------------------------------------

                N1      N2    
      1s       2.0038  2.0038
      2s       1.8960  1.8960
      2px      0.5261  0.5261
      2pz      1.4121  1.4121
      2py      0.9597  0.9597
      *s      -1.6263 -1.6263
      *px     -0.0466 -0.0466
      *pz      1.8249  1.8249
      *py      0.0395  0.0395
      *d2+     0.0000  0.0000
      *d1+     0.0221  0.0221
      *d0     -0.0104 -0.0104
      *d1-    -0.0008 -0.0008
      *d2-     0.0000  0.0000
      Total    7.0000  7.0000

      N-E      0.0000 -0.0000

      Total electronic charge=   14.000000

      Total            charge=   -0.000000
--



      Expectation values of various properties for root number:  8
      -----------------------------------------------------------


++    Molecular properties:
      ---------------------

      Charge (e):
                      =   -0.0000
      Dipole Moment (Debye):
      Origin of the operator (Ang)=    0.0000    0.0000    0.0000
                   X=  7.6931E-15               Y=  2.4133E-14               Z= -6.7111E-12           Total=  6.7112E-12
      Quadrupole Moment (Debye*Ang):
      Origin of the operator (Ang)=    0.0000    0.0000    0.0000
                  XX= -1.6162E+01              XY=  8.4148E-02              XZ= -1.3007E-15              YY= -1.7667E+01
                  YZ=  1.4811E-14              ZZ= -4.6799E+01
      In traceless form (Debye*Ang)
                  XX=  1.6070E+01              XY=  1.2622E-01              XZ= -1.9510E-15              YY=  1.3814E+01
                  YZ=  2.2217E-14              ZZ= -2.9884E+01
--

      Von Neumann Entropy (Root  9) =  0.33336


      Mulliken population analysis for root number:  9
      -----------------------------------------------


++    Molecular charges:
      ------------------

      Mulliken charges per centre and basis function type
      ---------------------------------------------------

                N1      N2    
      1s       2.0038  2.0038
      2s       1.8934  1.8934
      2px      1.0180  1.0180
      2pz      1.4140  1.4140
      2py      0.8778  0.8778
      *s       0.1002  0.1002
      *px     -0.0901 -0.0901
      *pz     -0.4158 -0.4158
      *py      0.1850  0.1850
      *d2+     0.0000  0.0000
      *d1+     0.0427  0.0427
      *d0      0.0044  0.0044
      *d1-    -0.0336 -0.0336
      *d2-     0.0000  0.0000
      Total    7.0000  7.0000

      N-E      0.0000 -0.0000

      Total electronic charge=   14.000000

      Total            charge=   -0.000000
--



      Expectation values of various properties for root number:  9
      -----------------------------------------------------------


++    Molecular properties:
      ---------------------

      Charge (e):
                      =   -0.0000
      Dipole Moment (Debye):
      Origin of the operator (Ang)=    0.0000    0.0000    0.0000
                   X=  9.8178E-16               Y=  3.0576E-15               Z=  5.6172E-14           Total=  5.6264E-14
      Quadrupole Moment (Debye*Ang):
      Origin of the operator (Ang)=    0.0000    0.0000    0.0000
                  XX= -1.0160E+01              XY=  3.6774E-02              XZ=  3.8501E-14              YY= -1.0817E+01
                  YZ=  2.6651E-15              ZZ= -1.3896E+01
      In traceless form (Debye*Ang)
                  XX=  2.1967E+00              XY=  5.5161E-02              XZ=  5.7752E-14              YY=  1.2107E+00
                  YZ=  3.9976E-15              ZZ= -3.4074E+00
--

      Von Neumann Entropy (Root 10) =  1.47675


      Mulliken population analysis for root number: 10
      -----------------------------------------------


++    Molecular charges:
      ------------------

      Mulliken charges per centre and basis function type
      ---------------------------------------------------

                N1      N2    
      1s       2.0038  2.0038
      2s       1.8960  1.8960
      2px      0.1115  0.1115
      2pz      1.4121  1.4121
      2py      1.3883  1.3883
      *s      -1.6263 -1.6263
      *px     -0.0096 -0.0096
      *pz      1.8249  1.8249
      *py     -0.0080 -0.0080
      *d2+     0.0000  0.0000
      *d1+     0.0046  0.0046
      *d0     -0.0104 -0.0104
      *d1-     0.0132  0.0132
      *d2-     0.0000  0.0000
      Total    7.0000  7.0000

      N-E      0.0000 -0.0000

      Total electronic charge=   14.000000

      Total            charge=   -0.000000
--



      Expectation values of various properties for root number: 10
      -----------------------------------------------------------


++    Molecular properties:
      ---------------------

      Charge (e):
                      =   -0.0000
      Dipole Moment (Debye):
      Origin of the operator (Ang)=    0.0000    0.0000    0.0000
                   X=  1.0039E-14               Y=  5.7911E-15               Z= -5.6637E-12           Total=  5.6637E-12
      Quadrupole Moment (Debye*Ang):
      Origin of the operator (Ang)=    0.0000    0.0000    0.0000
                  XX= -1.5098E+01              XY=  1.9826E-01              XZ= -6.1764E-14              YY= -1.8643E+01
                  YZ= -1.7180E-14              ZZ= -4.6826E+01
      In traceless form (Debye*Ang)
                  XX=  1.7636E+01              XY=  2.9740E-01              XZ= -9.2647E-14              YY=  1.2320E+01
                  YZ= -2.5770E-14              ZZ= -2.9955E+01
--


  Input file to MOLDEN was generated!


  Input file to MOLDEN was generated!


  Input file to MOLDEN was generated!


  Input file to MOLDEN was generated!


  Input file to MOLDEN was generated!


  Input file to MOLDEN was generated!


  Input file to MOLDEN was generated!


  Input file to MOLDEN was generated!


  Input file to MOLDEN was generated!


  Input file to MOLDEN was generated!


  Input file to MOLDEN was generated!

      Average orbitals are written to the RASORB file
      Natural orbitals for root   1 are written to the RASORB.1 file
      Natural orbitals for root   2 are written to the RASORB.2 file
      Natural orbitals for root   3 are written to the RASORB.3 file
      Natural orbitals for root   4 are written to the RASORB.4 file
      Natural orbitals for root   5 are written to the RASORB.5 file
      Natural orbitals for root   6 are written to the RASORB.6 file
      Natural orbitals for root   7 are written to the RASORB.7 file
      Natural orbitals for root   8 are written to the RASORB.8 file
      Natural orbitals for root   9 are written to the RASORB.9 file
      Natural orbitals for root  10 are written to the RASORB.10 file
      Spin density orbitals for root   1 are written to the SPDORB.1 file
      Spin density orbitals for root   2 are written to the SPDORB.2 file
      Spin density orbitals for root   3 are written to the SPDORB.3 file
      Spin density orbitals for root   4 are written to the SPDORB.4 file
      Spin density orbitals for root   5 are written to the SPDORB.5 file
      Spin density orbitals for root   6 are written to the SPDORB.6 file
      Spin density orbitals for root   7 are written to the SPDORB.7 file
      Spin density orbitals for root   8 are written to the SPDORB.8 file
      Spin density orbitals for root   9 are written to the SPDORB.9 file
      Spin density orbitals for root  10 are written to the SPDORB.10 file

 ###############################################################################
 ###############################################################################
 ###                                                                         ###
 ###                                                                         ###
 ###    WARNING: RunFile label BirthCertificate                              ###
 ###    was used       56 times                                              ###
 ###                                                                         ###
 ###                                                                         ###
 ###############################################################################
 ###############################################################################
 ###############################################################################
 ###############################################################################
 ###                                                                         ###
 ###                                                                         ###
 ###    WARNING: RunFile label nBas                                          ###
 ###    was used       57 times                                              ###
 ###                                                                         ###
 ###                                                                         ###
 ###############################################################################
 ###############################################################################
--- Stop Module: rasscf at Mon Aug  3 23:04:02 2020 /rc=_RC_ALL_IS_WELL_ ---
*** files: anion_xms.rasscf.molden anion_xms.rasscf.molden.1 anion_xms.rasscf.molden.2 anion_xms.rasscf.molden.3 anion_xms.rasscf.molden.4 anion_xms.rasscf.molden.5
           anion_xms.rasscf.molden.6 anion_xms.rasscf.molden.7 anion_xms.rasscf.molden.8 anion_xms.rasscf.molden.9 anion_xms.rasscf.molden.10 anion_xms.RasOrb anion_xms.RasOrb.1
           anion_xms.RasOrb.2 anion_xms.RasOrb.3 anion_xms.RasOrb.4 anion_xms.RasOrb.5 anion_xms.RasOrb.6 anion_xms.RasOrb.7 anion_xms.RasOrb.8 anion_xms.RasOrb.9
           anion_xms.RasOrb.10 anion_xms.rasscf.h5 anion_xms.SpdOrb.1 anion_xms.SpdOrb.2 anion_xms.SpdOrb.3 anion_xms.SpdOrb.4 anion_xms.SpdOrb.5 anion_xms.SpdOrb.6
           anion_xms.SpdOrb.7 anion_xms.SpdOrb.8 anion_xms.SpdOrb.9 anion_xms.SpdOrb.10 xmldump
    saved to directory /home/gayverjr/OpenCAP/molcas_tests
--- Module rasscf spent 3 seconds ---

*** symbolic link created: INPORB -> anion_xms.RasOrb
--- Start Module: caspt2 at Mon Aug  3 23:04:02 2020 ---

()()()()()()()()()()()()()()()()()()()()()()()()()()()()()()()()()()()()()()()()()()()()()()()()()()

                                              &CASPT2

                                   only a single process is used
                       available to each process: 20 GB of memory, 16 threads
                                             pid: 17112
()()()()()()()()()()()()()()()()()()()()()()()()()()()()()()()()()()()()()()()()()()()()()()()()()()


++    Wave function specifications:
      -----------------------------

      Number of closed shell electrons           6
      Number of electrons in active shells       4
      Max number of holes in RAS1 space          0
      Max number of electrons in RAS3 space      0
      Number of inactive orbitals                3
      Number of active orbitals                  4
      Number of secondary orbitals              37
      Spin quantum number                      0.0
      State symmetry                             1
      Number of CSFs                            20
      Number of root(s) available               10
      Root passed to geometry opt.              10
      A file JOBMIX will be created
      This is a MULTI-STATE CASSCF reference
      Number of CI roots used                   10
      These are:                                 1   2   3   4   5   6   7   8   9  10
      Off-diagonal elements of Heff are computed
--

++    Orbital specifications:
      -----------------------

      Symmetry species                           1
                                                 a
      Frozen orbitals                            2
      Inactive orbitals                          3
      Active orbitals                            4
      Secondary orbitals                        37
      Deleted orbitals                           0
      Number of basis functions                 46
--

++    CASPT2 specifications:
      ----------------------

      Type of calculation                        XMS-CASPT2
      Fock operator                              state-average
      IPEA shift                                 0.25
      Real shift                                 0.00
      Imaginary shift                            0.00
      The input orbitals will be transformed to quasi-canonical
      The input states will be rotated to diagonalize the Fock operator
--

--------------------------------------------------------------------------------
 Estimated memory requirements:
  POLY3 :                   250840
  RHS:                      270754
  SIGMA :                   283744
  PRPCTL:                        0
 Available workspace:   2249995736

++ CASPT2 computation for group   1

********************************************************************************
 Multi-State initialization phase begins for group   1
--------------------------------------------------------------------------------
********************************************************************************
 Compute H0 matrices for state    1
--------------------------------------------------------------------------------
--------------------------------------------------------------------------------
 H0 matrices have been computed.

********************************************************************************
  CASPT2 EQUATION SOLUTION
--------------------------------------------------------------------------------

  Total nr of CASPT2 parameters:
   Before reduction:       41192
   After  reduction:       38991

 The contributions to the second order correlation energy in atomic units.
-----------------------------------------------------------------------------------------------------------------------------
  IT.      VJTU        VJTI        ATVX        AIVX        VJAI        BVAT        BJAT        BJAI        TOTAL       RNORM  
-----------------------------------------------------------------------------------------------------------------------------
   1    -0.000841   -0.005780   -0.062905   -0.055021   -0.008131   -0.062541   -0.102147   -0.059735   -0.357101    0.000346
   2    -0.000842   -0.005782   -0.062944   -0.055024   -0.008131   -0.062536   -0.102146   -0.059735   -0.357140    0.000010
-----------------------------------------------------------------------------------------------------------------------------

  FINAL CASPT2 RESULT:

      Reference energy:        -108.9689153169
      E2 (Non-variational):      -0.3571415243
      E2 (Variational):          -0.3571415228
      Total energy:            -109.3260568397
      Residual norm:              0.0000002393
      Reference weight:           0.87057

      Contributions to the CASPT2 correlation energy
      Active & Virtual Only:         -0.1254808247
      One Inactive Excited:          -0.1580130506
      Two Inactive Excited:          -0.0736476489


++ Denominators, etc.
--------------------------------------------------------------------------------------------------------------
 Report on small energy denominators, large coefficients, and large energy contributions.
CASE  SYMM ACTIVE-MIX  NON-ACTIVE INDICES          DENOMINATOR     RHS VALUE       COEFFICIENT     CONTRIBUTION
VJTIP    1  Mu1.0001  In1.004 In1.004               1.51585677      0.07559861     -0.04963135     -0.00375206
[...]
  A NEW JOBIPH FILE NAMED 'JOBMIX' IS PREPARED.
********************************************************************************

++ Mixed CI coefficients:
  The CI coefficients for the MIXED state nr.   1
--------------------------------------------------------------------------------
 CI COEFFICIENTS LARGER THAN  0.50D-01
  Occupation of active orbitals, and spin coupling
  of open shells. (u,d: Spin up or down).
  SGUGA info is (Midvert:IsyUp:UpperWalk/LowerWalk)
        Conf  SGUGA info        Occupation    Coefficient         Weight
           1  ( 1:1:   1/   1)   2200           -0.992021       0.984107
          14  ( 3:1:   3/   3)   0202           -0.123482       0.015248

  The CI coefficients for the MIXED state nr.   2
--------------------------------------------------------------------------------
 CI COEFFICIENTS LARGER THAN  0.50D-01
  Occupation of active orbitals, and spin coupling
  of open shells. (u,d: Spin up or down).
  SGUGA info is (Midvert:IsyUp:UpperWalk/LowerWalk)
        Conf  SGUGA info        Occupation    Coefficient         Weight
           5  ( 2:1:   2/   2)   u20d           -1.000000       0.999999

  The CI coefficients for the MIXED state nr.   3
--------------------------------------------------------------------------------
 CI COEFFICIENTS LARGER THAN  0.50D-01
  Occupation of active orbitals, and spin coupling
  of open shells. (u,d: Spin up or down).
  SGUGA info is (Midvert:IsyUp:UpperWalk/LowerWalk)
        Conf  SGUGA info        Occupation    Coefficient         Weight
           3  ( 2:1:   2/   1)   2u0d            1.000000       0.999999

  The CI coefficients for the MIXED state nr.   4
--------------------------------------------------------------------------------
 CI COEFFICIENTS LARGER THAN  0.50D-01
  Occupation of active orbitals, and spin coupling
  of open shells. (u,d: Spin up or down).
  SGUGA info is (Midvert:IsyUp:UpperWalk/LowerWalk)
        Conf  SGUGA info        Occupation    Coefficient         Weight
           1  ( 1:1:   1/   1)   2200           -0.125871       0.015843
           8  ( 3:1:   3/   1)   2002           -0.145809       0.021260
          14  ( 3:1:   3/   3)   0202            0.981259       0.962869

  The CI coefficients for the MIXED state nr.   5
--------------------------------------------------------------------------------
 CI COEFFICIENTS LARGER THAN  0.50D-01
  Occupation of active orbitals, and spin coupling
  of open shells. (u,d: Spin up or down).
  SGUGA info is (Midvert:IsyUp:UpperWalk/LowerWalk)
        Conf  SGUGA info        Occupation    Coefficient         Weight
           4  ( 2:1:   1/   2)   u2d0           -0.999849       0.999698

  The CI coefficients for the MIXED state nr.   6
--------------------------------------------------------------------------------
 CI COEFFICIENTS LARGER THAN  0.50D-01
  Occupation of active orbitals, and spin coupling
  of open shells. (u,d: Spin up or down).
  SGUGA info is (Midvert:IsyUp:UpperWalk/LowerWalk)
        Conf  SGUGA info        Occupation    Coefficient         Weight
           2  ( 2:1:   1/   1)   2ud0            0.986812       0.973797
          19  ( 5:1:   2/   2)   0ud2           -0.161873       0.026203

  The CI coefficients for the MIXED state nr.   7
--------------------------------------------------------------------------------
 CI COEFFICIENTS LARGER THAN  0.50D-01
  Occupation of active orbitals, and spin coupling
  of open shells. (u,d: Spin up or down).
  SGUGA info is (Midvert:IsyUp:UpperWalk/LowerWalk)
        Conf  SGUGA info        Occupation    Coefficient         Weight
          11  ( 3:1:   3/   2)   ud02            0.999990       0.999979

  The CI coefficients for the MIXED state nr.   8
--------------------------------------------------------------------------------
 CI COEFFICIENTS LARGER THAN  0.50D-01
  Occupation of active orbitals, and spin coupling
  of open shells. (u,d: Spin up or down).
  SGUGA info is (Midvert:IsyUp:UpperWalk/LowerWalk)
        Conf  SGUGA info        Occupation    Coefficient         Weight
           8  ( 3:1:   3/   1)   2002            0.988981       0.978083
          14  ( 3:1:   3/   3)   0202            0.147828       0.021853

  The CI coefficients for the MIXED state nr.   9
--------------------------------------------------------------------------------
 CI COEFFICIENTS LARGER THAN  0.50D-01
  Occupation of active orbitals, and spin coupling
  of open shells. (u,d: Spin up or down).
  SGUGA info is (Midvert:IsyUp:UpperWalk/LowerWalk)
        Conf  SGUGA info        Occupation    Coefficient         Weight
          10  ( 3:1:   2/   2)   udud            0.847721       0.718631
          15  ( 4:1:   1/   1)   uudd           -0.530442       0.281369

  The CI coefficients for the MIXED state nr.  10
--------------------------------------------------------------------------------
 CI COEFFICIENTS LARGER THAN  0.50D-01
  Occupation of active orbitals, and spin coupling
  of open shells. (u,d: Spin up or down).
  SGUGA info is (Midvert:IsyUp:UpperWalk/LowerWalk)
        Conf  SGUGA info        Occupation    Coefficient         Weight
           7  ( 3:1:   2/   1)   20ud            0.947385       0.897538
          13  ( 3:1:   2/   3)   02ud           -0.320098       0.102462

--

--- Stop Module: caspt2 at Mon Aug  3 23:04:04 2020 /rc=_RC_ALL_IS_WELL_ ---
*** files: xmldump
    saved to directory /home/gayverjr/OpenCAP/molcas_tests
--- Module caspt2 spent 1 second ---

*** symbolic link created: INPORB -> anion_xms.RasOrb
--- Start Module: rassi at Mon Aug  3 23:04:04 2020 ---

()()()()()()()()()()()()()()()()()()()()()()()()()()()()()()()()()()()()()()()()()()()()()()()()()()

                                               &RASSI

                                   only a single process is used
                       available to each process: 20 GB of memory, 16 threads
                                             pid: 18855
()()()()()()()()()()()()()()()()()()()()()()()()()()()()()()()()()()()()()()()()()()()()()()()()()()


      ********************************************************************************
      *                                                                              *
      *                             General data section                             *
      *                                                                              *
      ********************************************************************************

   Specific data for JOBIPH file JOBIPH                                                                                                                          
   -------------------------------------

   Header from SEWARD:
                                                                               
        Integrals generated by seward 4.2.0  , Mon Aug  3 23:03:56 2020        

   CASSCF title (first line only):
       (No title given)                                                        

   STATE IRREP:                            1
   SPIN MULTIPLICITY:                      1
   ACTIVE ELECTRONS:                       4
   MAX RAS1 HOLES:                         0
   MAX RAS3 ELECTRONS:                     0
   NR OF CONFIG:                          20

  Info: creating TDMFILE
        estimated file size                  2231 kB
        TDMs in AO format


   The following data are common to all the states:
   ------------------------------------------------
   (note: frozen counts as inactive, deleted as secondary)

      Nr of irreps: 1

                 Total     No./Irrep 
      Irrep                  1
                             a

      INACTIVE       5       5
      ACTIVE         4       4
      SECONDARY     37      37
      BASIS         46      46

      RAS1           0       0
      RAS2           4       4
      RAS3           0       0

        MATRIX ELEMENTS WILL BE COMPUTED FOR THE FOLLOWING ONE-ELECTRON OPERATORS, UNLESS ZERO BY SYMMETRY.
   (Herm=Hermitian, Anti=Antihermitian, Sing=Singlet operator, Trip=Triplet operator)
     MLTPL  0   1 (HERMSING)     MLTPL  1   1 (HERMSING)     MLTPL  1   2 (HERMSING)
     MLTPL  1   3 (HERMSING)     MLTPL  2   1 (HERMSING)     MLTPL  2   2 (HERMSING)
     MLTPL  2   3 (HERMSING)     MLTPL  2   4 (HERMSING)     MLTPL  2   5 (HERMSING)
     MLTPL  2   6 (HERMSING)     VELOCITY   1 (ANTISING)     VELOCITY   2 (ANTISING)
     VELOCITY   3 (ANTISING)     ANGMOM     1 (ANTISING)     ANGMOM     2 (ANTISING)
     ANGMOM     3 (ANTISING)     MLTPV  2   1 (ANTISING)     MLTPV  2   2 (ANTISING)
     MLTPV  2   3 (ANTISING)     MLTPV  2   4 (ANTISING)     MLTPV  2   5 (ANTISING)
     MLTPV  2   6 (ANTISING)

       EIGENSTATES OF A SPIN-FREE HAMILTONIAN WILL BE COMPUTED BASED ON:

  a (effective) Hamiltonian matrix that was read from the wavefunction file(s).
  SO coupling elements will be added.
       EIGENSTATES OF SPIN-ORBIT HAMILTONIAN WILL BE COMPUTED
        MATRIX ELEMENTS OVER SPIN EIGENSTATES FOR:
     MLTPL  0   1 (HERMSING)     MLTPL  1   1 (HERMSING)     MLTPL  1   2 (HERMSING)
     MLTPL  1   3 (HERMSING)     MLTPL  2   1 (HERMSING)     MLTPL  2   2 (HERMSING)
     MLTPL  2   3 (HERMSING)     MLTPL  2   4 (HERMSING)     MLTPL  2   5 (HERMSING)
     MLTPL  2   6 (HERMSING)     VELOCITY   1 (ANTISING)     VELOCITY   2 (ANTISING)
     VELOCITY   3 (ANTISING)     ANGMOM     1 (ANTISING)     ANGMOM     2 (ANTISING)
     ANGMOM     3 (ANTISING)     MLTPV  2   1 (ANTISING)     MLTPV  2   2 (ANTISING)
     MLTPV  2   3 (ANTISING)     MLTPV  2   4 (ANTISING)     MLTPV  2   5 (ANTISING)
     MLTPV  2   6 (ANTISING)

  Nr of states:                   10

   State:        1   2   3   4   5   6   7   8   9  10
  JobIph:        1   1   1   1   1   1   1   1   1   1
 Root nr:        1   2   3   4   5   6   7   8   9  10

  HAMILTONIAN MATRIX FOR THE ORIGINAL STATES:

  Diagonal, with energies
   -109.25730078   -108.89557566   -108.72855605   -108.73536167   -109.00704003
   -108.50572679   -108.51482616   -108.37587057   -108.77003106   -108.33035042

      OVERLAP MATRIX FOR THE ORIGINAL STATES:

  Diagonal, with elements
      1.00000000      1.00000000      1.00000000      1.00000000      1.00000000
      1.00000000      1.00000000      1.00000000      1.00000000      1.00000000

::    RASSI State    1     Total energy:   -109.25730078
::    RASSI State    2     Total energy:   -108.89557566
::    RASSI State    3     Total energy:   -108.72855605
::    RASSI State    4     Total energy:   -108.73536167
::    RASSI State    5     Total energy:   -109.00704003
::    RASSI State    6     Total energy:   -108.50572679
::    RASSI State    7     Total energy:   -108.51482616
::    RASSI State    8     Total energy:   -108.37587057
::    RASSI State    9     Total energy:   -108.77003106
::    RASSI State   10     Total energy:   -108.33035042



      ****************************************************************************************************
      *                                                                                                  *
      *                                         Spin-free section                                        *
      *                                                                                                  *
      *                 Note: index according to input order, order according to energy.                 *
      *                                                                                                  *
      ****************************************************************************************************



  SPIN-FREE ENERGIES:
  (Shifted by EMIN (a.u.) =       -109.2573007816)

 SF State       Relative EMIN(au)   Rel lowest level(eV)    D:o, cm**(-1)

     1             0.0000000000        0.0000000000              0.0000
     5             0.2502607481        6.8099418787          54925.8854
     2             0.3617251255        9.8430421037          79389.4886
     9             0.4872697243       13.2592846744         106943.3431
     4             0.5219391107       14.2026867392         114552.3939
     3             0.5287447286       14.3878770345         116046.0544
     7             0.7424746216       20.2037637061         162954.3439
     6             0.7515739936       20.4513702326         164951.4252
     8             0.8814302093       23.9849378733         193451.5703
    10             0.9269503583       25.2236042295         203442.0882

++ Dipole transition strengths (spin-free states):
   -----------------------------------------------
     for osc. strength at least  1.00000000E-05

      From   To        Osc. strength     Einstein coefficients Ax, Ay, Az (sec-1)    Total A (sec-1)
     -----------------------------------------------------------------------------------------------
         1    5       2.37981073E-01  4.78204467E-23  1.21468453E-20  4.78893320E+08  4.78893320E+08
         1   10       3.06367012E-04  2.62216776E+04  8.43174244E+06  1.46814362E-17  8.45796411E+06
         5    9       4.56048957E-01  8.17802925E-22  2.81839893E-19  8.23098745E+08  8.23098745E+08
         5    4       2.43316742E-02  1.78890639E+05  5.75233901E+07  1.95149686E-18  5.77022807E+07
         5    6       2.60281470E-02  4.89476943E-22  1.64727033E-19  2.10170856E+08  2.10170856E+08
         2    3       1.45669200E-02  4.04769844E+04  1.30156244E+07  1.00540568E-20  1.30561014E+07
         2    7       2.78615399E-01  1.85749234E-22  4.91473663E-20  1.29776087E+09  1.29776087E+09
         9   10       1.69380376E-03  3.26169454E+04  1.04881803E+07  3.15645880E-18  1.05207972E+07
         4   10       2.73159277E-02  3.84532753E-22  1.18388205E-19  1.43966354E+08  1.43966354E+08
         3    8       4.43073177E-04  4.29626205E-23  1.36184635E-20  1.77076735E+06  1.77076735E+06
         7    8       1.77291918E-02  3.40993805E+04  1.09648665E+07  4.42659290E-21  1.09989658E+07
         6   10       3.04250592E-02  9.32135565E+04  2.99733950E+07  5.01742740E-21  3.00666085E+07
     -----------------------------------------------------------------------------------------------
--

++ Velocity transition strengths (spin-free states):
   -------------------------------------------------
     for osc. strength at least  1.00000000E-05

      From   To        Osc. strength     Einstein coefficients Ax, Ay, Az (sec-1)    Total A (sec-1)
     -----------------------------------------------------------------------------------------------
         1    5       1.15637203E+00  4.09665703E-23  5.61654157E-21  2.32698691E+09  2.32698691E+09
         1   10       1.07643156E-05  9.21323724E+02  2.96252301E+05  5.19232798E-18  2.97173624E+05
         5    9       5.66505376E-01  5.25521807E-22  1.47973005E-19  1.02245572E+09  1.02245572E+09
         5    4       9.30216958E-03  6.83923036E+04  2.19915940E+07  3.87079728E-18  2.20599863E+07
         5    6       1.01945755E-02  6.61983720E-23  1.91563349E-20  8.23186785E+07  8.23186785E+07
         2    3       1.47430649E-02  4.09671310E+04  1.31730102E+07  1.31662870E-19  1.32139773E+07
         2    7       2.81529913E-01  9.37854300E-24  7.19352392E-21  1.31133636E+09  1.31133636E+09
         9   10       2.53557774E-04  4.88274992E+03  1.57005172E+06  1.14238536E-18  1.57493447E+06
         4   10       2.99708459E-02  5.08855967E-23  1.91247762E-20  1.57958883E+08  1.57958883E+08
         3    8       1.01169539E-03  2.18694520E-24  7.94024321E-22  4.04329862E+06  4.04329862E+06
         7    8       2.63855715E-02  5.07494586E+04  1.63185246E+07  3.07430600E-20  1.63692741E+07
         6   10       2.83790982E-02  8.69467985E+04  2.79578051E+07  1.58580310E-20  2.80447519E+07
     -----------------------------------------------------------------------------------------------
--

++ Length and velocity gauge comparison (spin-free states):
   --------------------------------------------------------

 --------------------------------------------------
 A comparison between the dipole oscillator strengths in 
 length and velocity gauge will be performed

 All dipole oscillator differences above the tolerance of   0.10000000000000001       will be printed 

 Due to basis set deficiency these oscillator may be problematic 

 The tolerance is defined as ABS(1-O_l/O_v) 
 O_l : dipole oscillator strength in length gauge
 O_p : dipole oscillator strength in velocity gauge
 --------------------------------------------------

  Problematic transitions have been found

      From   To       Difference (%) Osc. st. (len.) Osc. st. (vel.)
     ---------------------------------------------------------------
         1    5            79.420025  2.37981073E-01  1.15637203E+00
         1   10          2746.135532  3.06367012E-04  1.07643156E-05
         5    9            19.497859  4.56048957E-01  5.66505376E-01
         5    4           161.569885  2.43316742E-02  9.30216958E-03
         5    6           155.313691  2.60281470E-02  1.01945755E-02
         9   10           568.014920  1.69380376E-03  2.53557774E-04
         3    8            56.204883  4.43073177E-04  1.01169539E-03
         7    8            32.807247  1.77291918E-02  2.63855715E-02
     ---------------------------------------------------------------

 Number of problematic transitions =                     8

--

 Electric-dipole - electric-octupole not included
 Electric-dipole - magnetic-quadrupole not included


      ****************************************************************************************************
      *                                                                                                  *
      *                                    Special properties section                                    *
      *                                                                                                  *
      ****************************************************************************************************


++ I/O STATISTICS
 
  I. General I/O information
  - - - - - - - - - - - - - - - - - - - - - - - - - - - - - - - - - - - - - - - - - - -
  Unit  Name          Flsize      Write/Read            MBytes           Write/Read
                      (MBytes)       Calls              In/Out           Time, sec.
  - - - - - - - - - - - - - - - - - - - - - - - - - - - - - - - - - - - - - - - - - - -
   1  SCRATCH           0.00 .      10/      55 .      0.0/      0.0 .       0/       0
   2  ANNI              0.00 .       0/       0 .      0.0/      0.0 .       0/       0
   3  RUNFILE          13.14 .     182/    3450 .      1.3/     25.0 .       0/       0
   4  ONEINT            1.60 .       0/    4902 .      0.0/   3337.6 .       0/       0
   5  JOBIPH            1.50 .       0/      98 .      0.0/      1.2 .       0/       0
   6  TDMFILE           1.83 .     110/     110 .      1.8/      1.8 .       0/       0
  - - - - - - - - - - - - - - - - - - - - - - - - - - - - - - - - - - - - - - - - - - -
   *  TOTAL            18.08 .     302/    8615 .      3.1/   3365.6 .       0/       0
  - - - - - - - - - - - - - - - - - - - - - - - - - - - - - - - - - - - - - - - - - - -
 
  II. I/O Access Patterns
  - - - - - - - - - - - - - - - - - - - -
  Unit  Name               % of random
                         Write/Read calls
  - - - - - - - - - - - - - - - - - - - -
   1  SCRATCH             90.0/ 100.0
   2  ANNI                 0.0/   0.0
   3  RUNFILE             28.6/  10.9
   4  ONEINT               0.0/  73.9
   5  JOBIPH               0.0/  75.5
   6  TDMFILE             99.1/ 100.0
  - - - - - - - - - - - - - - - - - - - -
--
--- Stop Module: rassi at Mon Aug  3 23:04:06 2020 /rc=_RC_ALL_IS_WELL_ ---
*** files: anion_xms.rassi.h5 xmldump
    saved to directory /home/gayverjr/OpenCAP/molcas_tests
--- Module rassi spent 1 second ---

.##################.
.# Happy landing! #.
.##################.

    Timing: Wall=11.24 User=23.03 System=3.50
