******************************************************
*** WorkDir and CurrDir are the same, not cleaned! ***
******************************************************
   This run of MOLCAS is using the pymolcas driver

                             OPE
                             OPE          NMOL  CASOP  ENMOLC A   SO
                 OPE        NMOLC        AS  OP EN  MO LC     AS  OP
                OPENM       OL CA        SO  PE NM  OL CA     SOP EN
                OP EN      MO   LC       AS  OP ENMOL  CASO   PENMOL
                OP  EN     MO   LC       AS  OP EN     MO     LC ASO
               OP   E  NMOL  C  AS       OP  EN MO     LC     AS  OP
               OP  E   NMO   LC AS        OPEN  MO     LCASOP EN   M
               O  PEN   MO  LCA  SO
            OPE   NMO   L   CAS    OP
        OPENMOL  CASOP     ENMOL   CASOPE
     OPENMOLCA   SOPENMOLCASOPEN   MOLCASOPE
    OPENMOLCAS   OP           EN   MOL    CAS
    OPENMOLCAS       OP  ENM        O     LCA
    OPENMOLCAS    OPEN  MOLCASO     P  E  NMO
    OPENMOLCAS     OP               E  N  MOL
    OPENMOLCA   SO           PENM   O  L  CAS    OPEN    MO    LCAS
    OPENMOLCA   SOP           ENM   O  L  CAS   OP  EN  MOLC  AS   O
    OPENMOLCA   SOPE           NM      O  LCA   S      OP  EN MO
    OPENMOLC                AS         O  PEN   M      OL  CA  SOPE
    OPENMO        LCASOPE  NMOL        C  ASO   P      ENMOLC     AS
    OPE     NMO      LCA  SO     P     E   NM   OL  CA SO  PE N   MO
          OPENMOLCA            SOPE   NMO        LCAS  O    P  ENMO
     OPENMOLCASOPENMOLCASOPENMOLCASOPENMOLCA
        OPENMOLCASOPENMOLCASOPENMOLCASOPE
            OPENMOLCASOPENMOLCASOPENM
               OPENMOLCASOPENMOLCA        version: 19.11
                   OPENMOLCASO
                       OPE                tag: 1162-ga18ab34

 OpenMolcas is free software; you can redistribute it and/or modify it
 under the terms of the GNU Lesser General Public License version 2.1.
 OpenMolcas is distributed in the hope that it will be useful, but it
 is provided "as is" and without any express or implied warranties.
 For more details see the full text of the license in the file
 LICENSE or in <http://www.gnu.org/licenses/>.

                 Copyright (C) The OpenMolcas Authors
           For the author list and the recommended citation,
                   consult the file CONTRIBUTORS.md

           *************************************************
           * pymolcas version py2.08                       *
           *   build bed633bbe89b7744c23cdbfc3f64969c      *
           *   (after the EMIL interpreter by V. Veryazov) *
           *************************************************

configuration info
------------------
C Compiler ID: GNU
C flags: -std=gnu99 -fopenmp
Fortran Compiler ID: GNU
Fortran flags: -fno-aggressive-loop-optimizations -cpp -fdefault-integer-8 -fopenmp
Definitions: _MOLCAS_;_I8_;_LINUX_;_MKL_;_DMRG_
Parallel: OFF (GA=OFF)


   ----------------------------------------------------------------------
  |
  |             Project: symmetry
  |      Submitted from: /scratch/gayverjr/symmetry.3775075709
  |        Scratch area: /scratch/gayverjr/symmetry.3775075709
  |     Save outputs to: /home/gayverjr/OpenCAP/molcas_tests
  |              Molcas: /home/qcsoftware/OpenMolcas/qcmaquis_build/build
  |
  | Scratch area is NOT empty
  |
  |      MOLCAS_DRIVER = /home/qcsoftware/bin/pymolcas
  | MOLCAS_NEW_WORKDIR = YES
  |      MOLCAS_NPROCS = 16
  |      MOLCAS_SOURCE = /home/qcsoftware/OpenMolcas/Molcas_src
  |   MOLCAS_STRUCTURE = 0
  |
   ----------------------------------------------------------------------

++ ---------   Input file   ---------

&GATEWAY
Coord
2
Bohr
 N  0.0  0.0  1.039
 N  0.0  0.0  -1.039
Basis set = aug-cc-pvdz

&SEWARD

&SCF

&RASSCF
LUMORB
Inactive = 3 0 0 0 2 0 0 0
Ras2= 0 1 1 0 0 2 2 0
TDM
Charge = 0
CIROOT= 10 10 1

&CASPT2
MAXIter = 50
MULtistate = all

&RASSI
TRD1
Heff
EJOB

-- ----------------------------------

--- Start Module: gateway at Mon Aug  3 23:00:23 2020 ---

()()()()()()()()()()()()()()()()()()()()()()()()()()()()()()()()()()()()()()()()()()()()()()()()()()

                                              &GATEWAY

                                   only a single process is used
                       available to each process: 20 GB of memory, 16 threads
                                             pid: 16095
()()()()()()()()()()()()()()()()()()()()()()()()()()()()()()()()()()()()()()()()()()()()()()()()()()

      Found SYMMETRY generators: x y z

++    Symmetry information:
      ---------------------

                    --- Group Generators ---
                    Reflection in the yz-plane  
                    Reflection in the xz-plane  
                    Reflection in the xy-plane  

                    Character Table for D2h

                             E   s(yz) s(xz) C2(z) s(xy) C2(y) C2(x)   i  
                    ag       1     1     1     1     1     1     1     1  
                    b3u      1    -1     1    -1     1    -1     1    -1  x
                    b2u      1     1    -1    -1     1     1    -1    -1  y
                    b1g      1    -1    -1     1     1    -1    -1     1  xy, Rz
                    b1u      1     1     1     1    -1    -1    -1    -1  z
                    b2g      1    -1     1    -1    -1     1    -1     1  xz, Ry
                    b3g      1     1    -1    -1    -1    -1     1     1  yz, Rx
                    au       1    -1    -1     1    -1     1     1    -1  I
--


++    Basis set information:
      ----------------------


      Basis set label: N.AUG-CC-PVDZ.........

      Electronic valence basis set:
      ------------------
      Associated Effective Charge   7.000000 au
      Associated Actual Charge      7.000000 au
      Nuclear Model: Point charge

      Shell  nPrim  nBasis  Cartesian Spherical Contaminant
         s      10       4        X                  
         p       5       3        X                  
         d       2       2                 X         
--


++    Molecular structure info:
      -------------------------

                    ************************************************ 
                    **** Cartesian Coordinates / Bohr, Angstrom **** 
                    ************************************************ 

     Center  Label                x              y              z                     x              y              z
        1      N1               0.000000       0.000000       1.039000              0.000000       0.000000       0.549815
        2      N1               0.000000       0.000000      -1.039000              0.000000       0.000000      -0.549815
--


            Nuclear Potential Energy             23.58036574 au

--- Stop Module: gateway at Mon Aug  3 23:00:25 2020 /rc=_RC_ALL_IS_WELL_ ---
*** files: xmldump
    saved to directory /home/gayverjr/OpenCAP/molcas_tests
--- Module gateway spent 1 second ---

--- Start Module: seward at Mon Aug  3 23:00:25 2020 ---

()()()()()()()()()()()()()()()()()()()()()()()()()()()()()()()()()()()()()()()()()()()()()()()()()()

                                              &SEWARD

                                   only a single process is used
                       available to each process: 20 GB of memory, 16 threads
                                             pid: 16116
()()()()()()()()()()()()()()()()()()()()()()()()()()()()()()()()()()()()()()()()()()()()()()()()()()

               SEWARD will generate:
                  Multipole Moment integrals up to order  2
                  Kinetic Energy integrals
                  Nuclear Attraction integrals (point charge)
                  One-Electron Hamiltonian integrals
                  Velocity integrals
                  Orbital angular momentum around ( 0.0000  0.0000  0.0000 )
                  Velocity quadrupole around ( 0.0000  0.0000  0.0000 )
                  Two-Electron Repulsion integrals

                   Integrals are discarded if absolute value <: 0.10E-13
                   Integral cutoff threshold is set to       <: 0.10E-15

                    Unitary symmetry adaptation


            Nuclear Potential Energy             23.58036574 au


      Basis set specifications :
      Symmetry species         ag   b3u  b2u  b1g  b1u  b2g  b3g  au 
      Basis functions           11    5    5    2   11    5    5    2


  Input file to MOLDEN was generated!

--- Stop Module: seward at Mon Aug  3 23:00:27 2020 /rc=_RC_ALL_IS_WELL_ ---
*** files: symmetry.GssOrb symmetry.guessorb.h5 symmetry.guessorb.molden xmldump
    saved to directory /home/gayverjr/OpenCAP/molcas_tests
--- Module seward spent 2 seconds ---

*** symbolic link created: INPORB -> symmetry.GssOrb
--- Start Module: scf at Mon Aug  3 23:00:27 2020 ---

()()()()()()()()()()()()()()()()()()()()()()()()()()()()()()()()()()()()()()()()()()()()()()()()()()

                                                &SCF

                                   only a single process is used
                       available to each process: 20 GB of memory, 16 threads
                                             pid: 16143
()()()()()()()()()()()()()()()()()()()()()()()()()()()()()()()()()()()()()()()()()()()()()()()()()()

++    Input section:
      --------------

      Header of the integral files:
      
       Integrals generated by seward 4.2.0  , Mon Aug  3 23:00:25 2020


      Cartesian coordinates in Angstrom:
      -----------------------------------------------------
      No.  Label        X            Y            Z        
      -----------------------------------------------------
       1   N1         0.00000000   0.00000000   0.54981512
       2   N1         0.00000000   0.00000000  -0.54981512
      -----------------------------------------------------
      Nuclear repulsion energy =   23.58036574
--

++    Orbital specifications:
      -----------------------

      Symmetry species               1   2   3   4   5   6   7   8
                                    ag b3u b2u b1g b1u b2g b3g  au
      Frozen orbitals                0   0   0   0   0   0   0   0
      Occupied orbitals              3   1   1   0   2   0   0   0
      Secondary orbitals             8   4   4   2   9   5   5   2
      Deleted orbitals               0   0   0   0   0   0   0   0
      Total number of orbitals      11   5   5   2  11   5   5   2
      Number of basis functions     11   5   5   2  11   5   5   2
--

      Molecular charge                           0.000

++    Optimization specifications:
      ----------------------------

      SCF Algorithm: Conventional
      Minimized density differences are used
      Number of density matrices in core                5
      Maximum number of NDDO SCF iterations           400
      Maximum number of HF SCF iterations             400
      Threshold for SCF energy change            0.10E-08
      Threshold for density matrix               0.10E-03
      Threshold for Fock matrix                  0.15E-03
      Threshold for linear dependence            0.10E-08
      Threshold at which DIIS is turned on       0.15E+00
      Threshold at which QNR/C2DIIS is turned on 0.75E-01
      Threshold for Norm(delta) (QNR/C2DIIS)     0.20E-04
      DIIS extrapolation of the SCF procedure
      All orbitals punched on: SCFORB
--

      Input vectors read from INPORB
      Orbital file label: *Guess orbitals


++ Convergence information
                                   SCF        iterations: Energy and convergence statistics

Iter     Tot. SCF        One-elec.       Two-elec.     Energy      Max Dij or  Max Fij      DNorm      TNorm      AccCon     Time
         Energy          Energy          Energy        Change      Delta Norm                                                in Sec.
   1  -108.693128035  -191.877363861    59.603870090   0.00E+00    0.22E+00*   0.25E+00*    0.50E+01   0.57E+02   None         0.
   2  -108.948255825  -194.767092910    62.238471349  -0.26E+00*   0.56E-01*   0.40E-01*    0.27E+01   0.58E+02   EDIIS        0.
   3  -108.959634717  -193.904410185    61.364409732  -0.11E-01*   0.12E-01*   0.13E-01*    0.76E+00   0.58E+02   EDIIS        0.
   4  -108.960332670  -194.090240331    61.549541925  -0.70E-03*   0.44E-02*   0.22E-02*    0.85E-01   0.58E+02   c2DIIS       0.
   5  -108.960382645  -194.043397756    61.502649375  -0.50E-04*   0.12E-02*   0.67E-03*    0.89E-02   0.58E+02   QNRc2DIIS    0.
   6  -108.960386902  -194.047359234    61.506606595  -0.43E-05*   0.58E-03*   0.20E-03*    0.12E-02   0.58E+02   QNRc2DIIS    0.
   7  -108.960387364  -194.045278057    61.504524957  -0.46E-06*   0.36E-04*   0.23E-04     0.99E-04   0.58E+02   QNRc2DIIS    0.
   8  -108.960387368  -194.045704282    61.504951178  -0.36E-08*   0.47E-05    0.31E-05     0.26E-04   0.58E+02   QNRc2DIIS    0.
   9  -108.960387368  -194.045709259    61.504956154  -0.49E-10    0.23E-06    0.10E-06     0.71E-03   0.58E+02   QNRc2DIIS    0.

       Convergence after  9 Macro Iterations
--

 *****************************************************************************************************************************
 *                                                                                                                           *
 *                                             SCF/KS-DFT Program, Final results                                             *
 *                                                                                                                           *
 *                                                                                                                           *
 *                                                                                                                           *
 *                                                       Final Results                                                       *
 *                                                                                                                           *
 *****************************************************************************************************************************

::    Total SCF energy                               -108.9603873681
      One-electron energy                            -194.0457092588
      Two-electron energy                              61.5049561544
      Nuclear repulsion energy                         23.5803657363
      Kinetic energy (interpolated)                   108.6452981456
      Virial theorem                                    1.0029001644
      Total spin, S(S+1)                                0.0000000000
      Total spin, S                                     0.0000000000
      Max non-diagonal density matrix element           0.0000002386
      Max non-diagonal Fock matrix element              0.0000000325


      All orbitals with orbital energies smaller than  E(LUMO)+0.5 are printed

++    Molecular orbitals:
      -------------------

      Title: SCF orbitals

      Molecular orbitals for symmetry species 1: ag 

          Orbital            1         2         3         4         5         6    
          Energy          -15.6991   -1.4779   -0.6342    0.1402    0.1962    0.5860
          Occ. No.          2.0000    2.0000    2.0000    0.0000    0.0000    0.0000

        1 N1     1s         1.0009   -0.0152   -0.0045    0.0204   -0.0017    0.0000
        2 N1     2s         0.0054    0.9312    0.3078   -0.1395    0.1674    0.0000
        3 N1     *s        -0.0026   -0.2544    0.2188   -0.6027    0.8837   -0.0000
        4 N1     *s        -0.0000   -0.0067    0.0673    1.1840   -0.4284    0.0000
        5 N1     2pz       -0.0036   -0.4528    0.9448   -0.1870   -0.0120   -0.0000
        6 N1     *pz        0.0049    0.1542   -0.1488   -0.2231    0.2137    0.0000
        7 N1     *pz        0.0005    0.0104    0.0016    1.2052    2.2066   -0.0000
        8 N1     *d0        0.0007    0.0405   -0.0344    0.0054    0.0389    0.0000
        9 N1     *d0       -0.0027    0.0037   -0.0049    0.0243   -0.2670    0.0000
       10 N1     *d2+       0.0000    0.0000    0.0000    0.0000   -0.0000   -0.0059
       11 N1     *d2+      -0.0000   -0.0000   -0.0000   -0.0000    0.0000    0.7912

      Molecular orbitals for symmetry species 2: b3u

          Orbital            1         2    
          Energy           -0.6146    0.1504
          Occ. No.          2.0000    0.0000

        1 N1     2px        0.8921   -0.2099
        2 N1     *px       -0.0686   -0.2252
        3 N1     *px        0.0181    0.8583
        4 N1     *d1+      -0.0619    0.0237
        5 N1     *d1+      -0.0235   -0.0178

      Molecular orbitals for symmetry species 3: b2u

          Orbital            1         2    
          Energy           -0.6146    0.1504
          Occ. No.          2.0000    0.0000

        1 N1     2py        0.8921   -0.2099
        2 N1     *py       -0.0686   -0.2252
        3 N1     *py        0.0181    0.8583
        4 N1     *d1-      -0.0619    0.0237
        5 N1     *d1-      -0.0235   -0.0178

      Molecular orbitals for symmetry species 4: b1g

          Orbital            1    
          Energy            0.5860
          Occ. No.          0.0000

        1 N1     *d2-      -0.0059
        2 N1     *d2-       0.7912

      Molecular orbitals for symmetry species 5: b1u

          Orbital            1         2         3         4    
          Energy          -15.6957   -0.7818    0.1038    0.3252
          Occ. No.          2.0000    2.0000    0.0000    0.0000

        1 N1     1s         1.0025   -0.0005   -0.0248   -0.1132
        2 N1     2s         0.0092    0.9059    0.0622   -0.6342
        3 N1     *s        -0.0429    0.3342    1.9897    6.3499
        4 N1     *s        -0.0138    0.2213   19.6697   38.7854
        5 N1     2pz       -0.0044    0.4485    0.0484   -0.1239
        6 N1     *pz        0.0220   -0.2116   -1.3080   -4.6510
        7 N1     *pz        0.0029   -0.0312   -5.7573   -9.1626
        8 N1     *d0        0.0017   -0.0160   -0.0097    0.0460
        9 N1     *d0       -0.0046    0.0339    0.3294    1.0039
       10 N1     *d2+      -0.0000    0.0000    0.0000    0.0000
       11 N1     *d2+      -0.0000    0.0000   -0.0000   -0.0000

      Molecular orbitals for symmetry species 6: b2g

          Orbital            1         2    
          Energy            0.1239    0.2525
          Occ. No.          0.0000    0.0000

        1 N1     2px        0.6401   -0.7106
        2 N1     *px        0.2266   -0.2891
        3 N1     *px        1.9350    2.6916
        4 N1     *d1+       0.0305    0.0063
        5 N1     *d1+      -0.0587   -0.2223

      Molecular orbitals for symmetry species 7: b3g

          Orbital            1         2    
          Energy            0.1239    0.2525
          Occ. No.          0.0000    0.0000

        1 N1     2py        0.6401   -0.7106
        2 N1     *py        0.2266   -0.2891
        3 N1     *py        1.9350    2.6916
        4 N1     *d1-       0.0305    0.0063
        5 N1     *d1-      -0.0587   -0.2223
--


++    Molecular charges:
      ------------------

      Mulliken charges per centre and basis function type
      ---------------------------------------------------

                N1    
      1s       2.0035
      2s       1.8182
      2px      1.0293
      2pz      1.4186
      2py      1.0293
      *s       0.1195
      *px     -0.0631
      *pz     -0.3607
      *py     -0.0631
      *d2+     0.0000
      *d1+     0.0338
      *d0      0.0009
      *d1-     0.0338
      *d2-     0.0000
      Total    7.0000

      N-E     -0.0000

      Total electronic charge=   14.000000

      Total            charge=   -0.000000
--


++    Molecular properties:
      ---------------------

      Charge (e):
                      =   -0.0000
      Dipole Moment (Debye):
      Origin of the operator (Ang)=    0.0000    0.0000    0.0000
                   X=  0.0000E+00               Y=  0.0000E+00               Z=  0.0000E+00           Total=  0.0000E+00
      Quadrupole Moment (Debye*Ang):
      Origin of the operator (Ang)=    0.0000    0.0000    0.0000
                  XX= -1.0459E+01              XY=  0.0000E+00              XZ=  0.0000E+00              YY= -1.0459E+01
                  YZ=  0.0000E+00              ZZ= -1.1655E+01
      In traceless form (Debye*Ang)
                  XX=  5.9812E-01              XY=  0.0000E+00              XZ=  0.0000E+00              YY=  5.9812E-01
                  YZ=  0.0000E+00              ZZ= -1.1962E+00
--


  Input file to MOLDEN was generated!

 ###############################################################################
 ###############################################################################
 ###                                                                         ###
 ###                                                                         ###
 ###    WARNING: RunFile label nBas                                          ###
 ###    was used       71 times                                              ###
 ###                                                                         ###
 ###                                                                         ###
 ###############################################################################
 ###############################################################################
--- Stop Module: scf at Mon Aug  3 23:00:27 2020 /rc=_RC_ALL_IS_WELL_ ---
*** files: symmetry.scf.molden symmetry.ScfOrb symmetry.scf.h5 xmldump
    saved to directory /home/gayverjr/OpenCAP/molcas_tests

*** symbolic link created: INPORB -> symmetry.ScfOrb
--- Start Module: rasscf at Mon Aug  3 23:00:27 2020 ---

()()()()()()()()()()()()()()()()()()()()()()()()()()()()()()()()()()()()()()()()()()()()()()()()()()

                                              &RASSCF

                                   only a single process is used
                       available to each process: 20 GB of memory, 16 threads
                                             pid: 16182
()()()()()()()()()()()()()()()()()()()()()()()()()()()()()()()()()()()()()()()()()()()()()()()()()()


      Header of the ONEINT file:
      --------------------------
      
      Integrals generated by seward 4.2.0  , Mon Aug  3 23:00:25 2020


      OrdInt status: non-squared


      Cartesian coordinates in Angstrom:
      -----------------------------------------------------
      No.  Label        X            Y            Z        
      -----------------------------------------------------
       1   N1         0.00000000   0.00000000   0.54981512
       2   N1         0.00000000   0.00000000  -0.54981512
      -----------------------------------------------------
      Nuclear repulsion energy =   23.58036574

++    Wave function specifications:
      -----------------------------

      Number of closed shell electrons          10
      Number of electrons in active shells       4
      Max number of holes in RAS1 space          0
      Max nr of electrons in RAS3 space          0
      Number of inactive orbitals                5
      Number of active orbitals                  6
      Number of secondary orbitals              35
      Spin quantum number                      0.0
      State symmetry                             1
--

++    Orbital specifications:
      -----------------------

      Symmetry species                           1   2   3   4   5   6   7   8
                                                ag b3u b2u b1g b1u b2g b3g  au
      Frozen orbitals                            0   0   0   0   0   0   0   0
      Inactive orbitals                          3   0   0   0   2   0   0   0
      Active orbitals                            0   1   1   0   0   2   2   0
      RAS1 orbitals                              0   0   0   0   0   0   0   0
      RAS2 orbitals                              0   1   1   0   0   2   2   0
      RAS3 orbitals                              0   0   0   0   0   0   0   0
      Secondary orbitals                         8   4   4   2   9   3   3   2
      Deleted orbitals                           0   0   0   0   0   0   0   0
      Number of basis functions                 11   5   5   2  11   5   5   2
--

++    CI expansion specifications:
      ----------------------------

      Number of CSFs                            33
      Number of determinants                    38
      Number of root(s) required                10
      Root chosen for geometry opt.             10
      CI roots used                              1     2     3     4     5     6     7     8     9    10
      weights                                0.100 0.100 0.100 0.100 0.100 0.100 0.100 0.100 0.100 0.100
      highest root included in the CI           10
      max. size of the explicit Hamiltonian     33
--

++    Optimization specifications:
      ----------------------------

      RASSCF algorithm: Conventional
      Maximum number of macro iterations       200
      Maximum number of SX iterations          100
      Threshold for RASSCF energy            0.100E-07
      Threshold for max MO rotation          0.100E+00
      Threshold for max BLB element          0.100E-03
      Level shift parameter                  0.500E+00
      Make Quasi-Newton update
--

      The MO-coefficients are taken from the file:
      INPORB                                                                                                                          
      Title: SCF orbitals                                                                  

      Total molecular charge    0.00

      ************************************************************************************************************************
      *                                                                                                                      *
      *                                            Wave function control section                                             *
      *                                                                                                                      *
      ************************************************************************************************************************


                                         RASSCF iterations: Energy and convergence statistics
                                         ----------------------------------------------------

      Iter CI   SX   CI       RASSCF       Energy    max ROT     max BLB   max BLB  Level Ln srch  Step   QN   Walltime
          iter iter root      energy       change     param      element    value   shift minimum  type update hh:mm:ss
 Nr of preliminary CI iterations:   1
        1   1   31    0  -108.20597764    0.00E+00  -0.10E+00*   2   5 5  0.94E-01*  0.00   0.00    SX    NO    0:00:00
        2   1   13    0  -108.25363598   -0.48E-01*  0.22E-01    3   8 1 -0.48E-01*  0.00   0.00    SX    NO    0:00:00
        3   1   10    0  -108.25642514   -0.28E-02*  0.90E-02    2   9 1 -0.94E-02*  0.00   0.00    SX    NO    0:00:00
        4   1    9    0  -108.25668917   -0.26E-03*  0.32E-02    3   8 1 -0.56E-02*  0.00   0.00    SX    NO    0:00:00
        5   1    8    0  -108.25672476   -0.36E-04*  0.93E-03    2   9 1 -0.12E-02*  0.00   0.77    QN   YES    0:00:00
        6   1    8    0  -108.25672942   -0.47E-05*  0.48E-03    3   8 1 -0.13E-03*  0.00   1.09    QN   YES    0:00:00
        7   1    6    0  -108.25672960   -0.18E-06*  0.13E-03    2   3 7 -0.17E-04   0.00   1.23    QN   YES    0:00:00
        8   1    5    0  -108.25672961   -0.90E-08   0.74E-05    1   4 2  0.62E-05   0.00   1.03    QN   YES    0:00:00
      Convergence after  8 iterations
        9   1    5    0  -108.25672961   -0.14E-09   0.74E-05    3   8 1  0.34E-05   0.00   1.03    QN   YES    0:00:00

      ************************************************************************************************************************
                                                      Wave function printout:
                       occupation of active orbitals, and spin coupling of open shells (u,d: Spin up or down)
      ************************************************************************************************************************

      Note: transformation to natural orbitals
      has been made, which may change the order of the CSFs.

      printout of CI-coefficients larger than  0.05 for root  1
      energy=    -109.024566
      conf/sym  2 3 66 77     Coeff  Weight
             1  2 2 00 00   0.96515 0.93152
             3  0 2 20 00  -0.13958 0.01948
             6  u d u0 d0   0.12014 0.01443
             8  u u d0 d0  -0.09737 0.00948
            11  2 0 00 20  -0.13958 0.01948

      printout of CI-coefficients larger than  0.05 for root  2
      energy=    -108.407872
      conf/sym  2 3 66 77     Coeff  Weight
             1  2 2 00 00   0.09201 0.00847
             2  2 0 20 00  -0.14074 0.01981
             3  0 2 20 00   0.35506 0.12607
             6  u d u0 d0  -0.49581 0.24583
             8  u u d0 d0  -0.67071 0.44985
            11  2 0 00 20   0.35506 0.12607
            15  0 2 00 20  -0.14074 0.01981

      printout of CI-coefficients larger than  0.05 for root  3
      energy=    -108.338509
      conf/sym  2 3 66 77     Coeff  Weight
             2  2 0 20 00  -0.35254 0.12429
             3  0 2 20 00   0.35254 0.12429
             6  u d u0 d0   0.70509 0.49715
            11  2 0 00 20   0.35254 0.12429
            15  0 2 00 20  -0.35254 0.12429

      printout of CI-coefficients larger than  0.05 for root  4
      energy=    -108.249760
      conf/sym  2 3 66 77     Coeff  Weight
             2  2 0 20 00  -0.69719 0.48607
             4  2 0 ud 00  -0.09114 0.00831
            15  0 2 00 20   0.69719 0.48607
            16  0 2 00 ud   0.09114 0.00831

      printout of CI-coefficients larger than  0.05 for root  5
      energy=    -108.209465
      conf/sym  2 3 66 77     Coeff  Weight
             1  2 2 00 00   0.06118 0.00374
             2  2 0 20 00   0.58786 0.34558
             3  0 2 20 00   0.29947 0.08968
             4  2 0 ud 00   0.08701 0.00757
             5  0 2 ud 00   0.05381 0.00290
             6  u d u0 d0   0.28839 0.08317
             8  u u d0 d0  -0.12948 0.01677
            11  2 0 00 20   0.29947 0.08968
            12  2 0 00 ud   0.05381 0.00290
            15  0 2 00 20   0.58786 0.34558
            16  0 2 00 ud   0.08701 0.00757

      printout of CI-coefficients larger than  0.05 for root  6
      energy=    -108.159444
      conf/sym  2 3 66 77     Coeff  Weight
             2  2 0 20 00  -0.07568 0.00573
             3  0 2 20 00  -0.59071 0.34894
             4  2 0 ud 00   0.05244 0.00275
             5  0 2 ud 00  -0.29031 0.08428
             9  u u d0 0d  -0.23347 0.05451
            11  2 0 00 20   0.59071 0.34894
            12  2 0 00 ud   0.29031 0.08428
            15  0 2 00 20   0.07568 0.00573
            16  0 2 00 ud  -0.05244 0.00275
            24  u u 0d d0   0.23347 0.05451

      printout of CI-coefficients larger than  0.05 for root  7
      energy=    -108.076632
      conf/sym  2 3 66 77     Coeff  Weight
             4  2 0 ud 00  -0.12574 0.01581
             5  0 2 ud 00   0.37574 0.14118
             7  u d u0 0d  -0.35460 0.12574
             9  u u d0 0d  -0.45740 0.20922
            12  2 0 00 ud   0.37574 0.14118
            16  0 2 00 ud  -0.12574 0.01581
            22  u d 0u d0  -0.35460 0.12574
            23  u d 0u 0d   0.05635 0.00318
            24  u u 0d d0  -0.45740 0.20922
            25  u u 0d 0d   0.06244 0.00390

      printout of CI-coefficients larger than  0.05 for root  8
      energy=    -108.074149
      conf/sym  2 3 66 77     Coeff  Weight
             3  0 2 20 00  -0.17339 0.03006
             7  u d u0 0d   0.59538 0.35448
             9  u u d0 0d   0.33684 0.11346
            11  2 0 00 20   0.17339 0.03006
            22  u d 0u d0  -0.59538 0.35448
            24  u u 0d d0  -0.33684 0.11346

      printout of CI-coefficients larger than  0.05 for root  9
      energy=    -108.029899
      conf/sym  2 3 66 77     Coeff  Weight
             4  2 0 ud 00  -0.35076 0.12303
             5  0 2 ud 00   0.35076 0.12303
             6  u d u0 d0  -0.05269 0.00278
             7  u d u0 0d   0.49605 0.24606
            12  2 0 00 ud   0.35076 0.12303
            16  0 2 00 ud  -0.35076 0.12303
            22  u d 0u d0   0.49605 0.24606
            23  u d 0u 0d  -0.07031 0.00494

      printout of CI-coefficients larger than  0.05 for root 10
      energy=    -107.996999
      conf/sym  2 3 66 77     Coeff  Weight
             2  2 0 20 00  -0.07218 0.00521
             3  0 2 20 00   0.29622 0.08775
             4  2 0 ud 00   0.44363 0.19681
             5  0 2 ud 00  -0.36458 0.13292
             7  u d u0 0d   0.19603 0.03843
             9  u u d0 0d  -0.18808 0.03538
            11  2 0 00 20  -0.29622 0.08775
            12  2 0 00 ud   0.36458 0.13292
            15  0 2 00 20   0.07218 0.00521
            16  0 2 00 ud  -0.44363 0.19681
            22  u d 0u d0  -0.19603 0.03843
            24  u u 0d d0   0.18808 0.03538

      Natural orbitals and occupation numbers for root  1
      sym 2:   1.929277
      sym 3:   1.929277
      sym 6:   0.070718   0.000006
      sym 7:   0.070718   0.000006

      Natural orbitals and occupation numbers for root  2
      sym 2:   1.006656
      sym 3:   1.006656
      sym 6:   0.992981   0.000363
      sym 7:   0.992981   0.000363

      Natural orbitals and occupation numbers for root  3
      sym 2:   0.999984
      sym 3:   0.999984
      sym 6:   0.999509   0.000507
      sym 7:   0.999509   0.000507

      Natural orbitals and occupation numbers for root  4
      sym 2:   0.999965
      sym 3:   0.999965
      sym 6:   0.996348   0.003687
      sym 7:   0.996348   0.003687

      Natural orbitals and occupation numbers for root  5
      sym 2:   1.001306
      sym 3:   1.001306
      sym 6:   0.996946   0.001747
      sym 7:   0.996946   0.001747

      Natural orbitals and occupation numbers for root  6
      sym 2:   0.997013
      sym 3:   0.997013
      sym 6:   0.918563   0.084424
      sym 7:   0.918563   0.084424

      Natural orbitals and occupation numbers for root  7
      sym 2:   0.998322
      sym 3:   0.998322
      sym 6:   0.395324   0.606354
      sym 7:   0.395324   0.606354

      Natural orbitals and occupation numbers for root  8
      sym 2:   0.999720
      sym 3:   0.999720
      sym 6:   0.531794   0.468485
      sym 7:   0.531794   0.468485

      Natural orbitals and occupation numbers for root  9
      sym 2:   0.999686
      sym 3:   0.999686
      sym 6:   0.378106   0.622208
      sym 7:   0.378106   0.622208

      Natural orbitals and occupation numbers for root 10
      sym 2:   0.999609
      sym 3:   0.999609
      sym 6:   0.761017   0.239374
      sym 7:   0.761017   0.239374

      ************************************************************************************************************************
      *                                                                                                                      *
      *                                                    Final results                                                     *
      *                                                                                                                      *
      ************************************************************************************************************************


++    Wave function specifications:
      -----------------------------

      Number of closed shell electrons          10
      Number of electrons in active shells       4
      Max number of holes in RAS1 space          0
      Max nr of electrons in RAS3 space          0
      Number of inactive orbitals                5
      Number of active orbitals                  6
      Number of secondary orbitals              35
      Spin quantum number                      0.0
      State symmetry                             1
--

++    Orbital specifications:
      -----------------------

      Symmetry species                           1   2   3   4   5   6   7   8
                                                ag b3u b2u b1g b1u b2g b3g  au
      Frozen orbitals                            0   0   0   0   0   0   0   0
      Inactive orbitals                          3   0   0   0   2   0   0   0
      Active orbitals                            0   1   1   0   0   2   2   0
      RAS1 orbitals                              0   0   0   0   0   0   0   0
      RAS2 orbitals                              0   1   1   0   0   2   2   0
      RAS3 orbitals                              0   0   0   0   0   0   0   0
      Secondary orbitals                         8   4   4   2   9   3   3   2
      Deleted orbitals                           0   0   0   0   0   0   0   0
      Number of basis functions                 11   5   5   2  11   5   5   2
--

++    CI expansion specifications:
      ----------------------------

      Number of CSFs                            33
      Number of determinants                    38
      Number of root(s) required                10
      CI roots used                              1     2     3     4     5     6     7     8     9    10
      weights                                0.100 0.100 0.100 0.100 0.100 0.100 0.100 0.100 0.100 0.100
      highest root included in the CI           10
      Root passed to geometry opt.              10
--

++    Final optimization conditions:
      ------------------------------

      Average CI energy                            -108.25672961
      RASSCF energy for state 10                   -107.99699934
      Super-CI energy                                -0.00000000
      RASSCF energy change                           -0.00000000
      Max change in MO coefficients               0.180E-04
      Max non-diagonal density matrix element     0.738E-05
      Maximum BLB matrix element                  0.338E-05
      (orbital pair   3,   8 in symmetry   1)
      Norm of electronic gradient            0.867E-01
--


      Final state energy(ies):
      ------------------------

::    RASSCF root number  1 Total energy:   -109.02456619
::    RASSCF root number  2 Total energy:   -108.40787226
::    RASSCF root number  3 Total energy:   -108.33850887
::    RASSCF root number  4 Total energy:   -108.24976032
::    RASSCF root number  5 Total energy:   -108.20946509
::    RASSCF root number  6 Total energy:   -108.15944355
::    RASSCF root number  7 Total energy:   -108.07663176
::    RASSCF root number  8 Total energy:   -108.07414946
::    RASSCF root number  9 Total energy:   -108.02989930
::    RASSCF root number 10 Total energy:   -107.99699934

++    Molecular orbitals:
      -------------------

      Pseudonatural active orbitals and approximate occupation numbers




      Molecular orbitals for symmetry species 1: ag 


      Orbital                 1         2         3         4
      Energy           -15.7924   -1.6102   -0.7141    0.1195
      Occ. No.           2.0000    2.0000    2.0000    0.0000

     1 N1     1s         1.0014   -0.0098   -0.0018    0.0139
     2 N1     2s         0.0073    0.9433    0.3638   -0.2008
     3 N1     *s        -0.0037   -0.2903    0.2099   -0.7460
     4 N1     *s        -0.0003   -0.0101    0.0483    1.2394
     5 N1     2pz       -0.0051   -0.4999    0.9375   -0.1720
     6 N1     *pz        0.0071    0.1734   -0.1614   -0.2513
     7 N1     *pz        0.0005    0.0132   -0.0059    0.6145
     8 N1     *d0        0.0006    0.0508   -0.0487   -0.0001
     9 N1     *d0       -0.0035    0.0061   -0.0158    0.0685
    10 N1     *d2+       0.0000    0.0000   -0.0000   -0.0000
    11 N1     *d2+      -0.0000   -0.0000    0.0000    0.0000



      Molecular orbitals for symmetry species 2: b3u


      Orbital                 1         2
      Energy             0.0000    0.1238
      Occ. No.           1.0932    0.0000

     1 N1     2px        0.9539   -0.2007
     2 N1     *px       -0.1250   -0.1949
     3 N1     *px       -0.0010    0.8505
     4 N1     *d1+      -0.0656    0.0265
     5 N1     *d1+      -0.0174   -0.0226



      Molecular orbitals for symmetry species 3: b2u


      Orbital                 1         2
      Energy             0.0000    0.1238
      Occ. No.           1.0932    0.0000

     1 N1     2py        0.9539   -0.2007
     2 N1     *py       -0.1250   -0.1949
     3 N1     *py       -0.0010    0.8505
     4 N1     *d1-      -0.0656    0.0265
     5 N1     *d1-      -0.0174   -0.0226



      Molecular orbitals for symmetry species 5: b1u


      Orbital                 1         2         3
      Energy           -15.7898   -0.8704    0.0977
      Occ. No.           2.0000    2.0000    0.0000

     1 N1     1s         1.0027    0.0010   -0.0199
     2 N1     2s         0.0106    0.9393    0.0892
     3 N1     *s        -0.0385    0.4217    1.8357
     4 N1     *s        -0.0122    0.2234   18.0279
     5 N1     2pz       -0.0070    0.4220    0.0394
     6 N1     *pz        0.0206   -0.2722   -1.1832
     7 N1     *pz        0.0026   -0.0356   -5.3634
     8 N1     *d0        0.0024   -0.0286   -0.0138
     9 N1     *d0       -0.0042    0.0338    0.3020
    10 N1     *d2+       0.0000   -0.0000    0.0000
    11 N1     *d2+      -0.0000    0.0000   -0.0000



      Molecular orbitals for symmetry species 6: b2g


      Orbital                 1         2
      Energy             0.0000    0.0000
      Occ. No.           0.7005    0.2064

     1 N1     2px        1.1064   -0.3103
     2 N1     *px        0.2746   -0.0732
     3 N1     *px        0.1847    3.1998
     4 N1     *d1+       0.0096    0.0184
     5 N1     *d1+      -0.0664   -0.1075



      Molecular orbitals for symmetry species 7: b3g


      Orbital                 1         2
      Energy             0.0000    0.0000
      Occ. No.           0.7005    0.2064

     1 N1     2py        1.1064   -0.3103
     2 N1     *py        0.2746   -0.0732
     3 N1     *py        0.1847    3.1998
     4 N1     *d1-       0.0096    0.0184
     5 N1     *d1-      -0.0664   -0.1075
--

      Von Neumann Entropy (Root  1) =  0.44129


      Mulliken population analysis for root number:  1
      -----------------------------------------------


++    Molecular charges:
      ------------------

      Mulliken charges per centre and basis function type
      ---------------------------------------------------

                N1    
      1s       2.0041
      2s       1.8828
      2px      1.0911
      2pz      1.3981
      2py      1.0911
      *s       0.1329
      *px     -0.1211
      *pz     -0.4237
      *py     -0.1211
      *d2+     0.0000
      *d1+     0.0300
      *d0      0.0057
      *d1-     0.0300
      *d2-     0.0000
      Total    7.0000

      N-E     -0.0000

      Total electronic charge=   14.000000

      Total            charge=   -0.000000
--



      Expectation values of various properties for root number:  1
      -----------------------------------------------------------


++    Molecular properties:
      ---------------------

      Charge (e):
                      =   -0.0000
      Dipole Moment (Debye):
      Origin of the operator (Ang)=    0.0000    0.0000    0.0000
                   X=  0.0000E+00               Y=  0.0000E+00               Z=  0.0000E+00           Total=  0.0000E+00
      Quadrupole Moment (Debye*Ang):
      Origin of the operator (Ang)=    0.0000    0.0000    0.0000
                  XX= -9.7216E+00              XY=  0.0000E+00              XZ=  0.0000E+00              YY= -9.7216E+00
                  YZ=  0.0000E+00              ZZ= -1.0701E+01
      In traceless form (Debye*Ang)
                  XX=  4.8995E-01              XY=  0.0000E+00              XZ=  0.0000E+00              YY=  4.8995E-01
                  YZ=  0.0000E+00              ZZ= -9.7990E-01
--

      Von Neumann Entropy (Root  2) =  2.00461


      Mulliken population analysis for root number:  2
      -----------------------------------------------


++    Molecular charges:
      ------------------

      Mulliken charges per centre and basis function type
      ---------------------------------------------------

                N1    
      1s       2.0041
      2s       1.8828
      2px      0.9895
      2pz      1.3981
      2py      0.9895
      *s       0.1329
      *px      0.0180
      *pz     -0.4237
      *py      0.0180
      *d2+     0.0000
      *d1+    -0.0075
      *d0      0.0057
      *d1-    -0.0075
      *d2-     0.0000
      Total    7.0000

      N-E     -0.0000

      Total electronic charge=   14.000000

      Total            charge=   -0.000000
--



      Expectation values of various properties for root number:  2
      -----------------------------------------------------------


++    Molecular properties:
      ---------------------

      Charge (e):
                      =   -0.0000
      Dipole Moment (Debye):
      Origin of the operator (Ang)=    0.0000    0.0000    0.0000
                   X=  0.0000E+00               Y=  0.0000E+00               Z=  0.0000E+00           Total=  0.0000E+00
      Quadrupole Moment (Debye*Ang):
      Origin of the operator (Ang)=    0.0000    0.0000    0.0000
                  XX= -1.0188E+01              XY=  0.0000E+00              XZ=  0.0000E+00              YY= -1.0188E+01
                  YZ=  0.0000E+00              ZZ= -1.3740E+01
      In traceless form (Debye*Ang)
                  XX=  1.7758E+00              XY=  0.0000E+00              XZ=  0.0000E+00              YY=  1.7758E+00
                  YZ=  0.0000E+00              ZZ= -3.5516E+00
--

      Von Neumann Entropy (Root  3) =  2.00628


      Mulliken population analysis for root number:  3
      -----------------------------------------------


++    Molecular charges:
      ------------------

      Mulliken charges per centre and basis function type
      ---------------------------------------------------

                N1    
      1s       2.0041
      2s       1.8828
      2px      0.9848
      2pz      1.3981
      2py      0.9848
      *s       0.1329
      *px      0.0238
      *pz     -0.4237
      *py      0.0238
      *d2+     0.0000
      *d1+    -0.0086
      *d0      0.0057
      *d1-    -0.0086
      *d2-     0.0000
      Total    7.0000

      N-E     -0.0000

      Total electronic charge=   14.000000

      Total            charge=   -0.000000
--



      Expectation values of various properties for root number:  3
      -----------------------------------------------------------


++    Molecular properties:
      ---------------------

      Charge (e):
                      =   -0.0000
      Dipole Moment (Debye):
      Origin of the operator (Ang)=    0.0000    0.0000    0.0000
                   X=  0.0000E+00               Y=  0.0000E+00               Z=  0.0000E+00           Total=  0.0000E+00
      Quadrupole Moment (Debye*Ang):
      Origin of the operator (Ang)=    0.0000    0.0000    0.0000
                  XX= -1.0345E+01              XY=  0.0000E+00              XZ=  0.0000E+00              YY= -1.0345E+01
                  YZ=  0.0000E+00              ZZ= -1.3982E+01
      In traceless form (Debye*Ang)
                  XX=  1.8187E+00              XY=  0.0000E+00              XZ=  0.0000E+00              YY=  1.8187E+00
                  YZ=  0.0000E+00              ZZ= -3.6373E+00
--

      Von Neumann Entropy (Root  4) =  2.03511


      Mulliken population analysis for root number:  4
      -----------------------------------------------


++    Molecular charges:
      ------------------

      Mulliken charges per centre and basis function type
      ---------------------------------------------------

                N1    
      1s       2.0041
      2s       1.8828
      2px      0.9745
      2pz      1.3981
      2py      0.9745
      *s       0.1329
      *px      0.0358
      *pz     -0.4237
      *py      0.0358
      *d2+     0.0000
      *d1+    -0.0103
      *d0      0.0057
      *d1-    -0.0103
      *d2-     0.0000
      Total    7.0000

      N-E     -0.0000

      Total electronic charge=   14.000000

      Total            charge=   -0.000000
--



      Expectation values of various properties for root number:  4
      -----------------------------------------------------------


++    Molecular properties:
      ---------------------

      Charge (e):
                      =   -0.0000
      Dipole Moment (Debye):
      Origin of the operator (Ang)=    0.0000    0.0000    0.0000
                   X=  0.0000E+00               Y=  0.0000E+00               Z=  0.0000E+00           Total=  0.0000E+00
      Quadrupole Moment (Debye*Ang):
      Origin of the operator (Ang)=    0.0000    0.0000    0.0000
                  XX= -1.0776E+01              XY=  0.0000E+00              XZ=  0.0000E+00              YY= -1.0776E+01
                  YZ=  0.0000E+00              ZZ= -1.4605E+01
      In traceless form (Debye*Ang)
                  XX=  1.9144E+00              XY=  0.0000E+00              XZ=  0.0000E+00              YY=  1.9144E+00
                  YZ=  0.0000E+00              ZZ= -3.8289E+00
--

      Von Neumann Entropy (Root  5) =  2.01852


      Mulliken population analysis for root number:  5
      -----------------------------------------------


++    Molecular charges:
      ------------------

      Mulliken charges per centre and basis function type
      ---------------------------------------------------

                N1    
      1s       2.0041
      2s       1.8828
      2px      0.9728
      2pz      1.3981
      2py      0.9728
      *s       0.1329
      *px      0.0380
      *pz     -0.4237
      *py      0.0380
      *d2+     0.0000
      *d1+    -0.0108
      *d0      0.0057
      *d1-    -0.0108
      *d2-     0.0000
      Total    7.0000

      N-E     -0.0000

      Total electronic charge=   14.000000

      Total            charge=   -0.000000
--



      Expectation values of various properties for root number:  5
      -----------------------------------------------------------


++    Molecular properties:
      ---------------------

      Charge (e):
                      =   -0.0000
      Dipole Moment (Debye):
      Origin of the operator (Ang)=    0.0000    0.0000    0.0000
                   X=  0.0000E+00               Y=  0.0000E+00               Z=  0.0000E+00           Total=  0.0000E+00
      Quadrupole Moment (Debye*Ang):
      Origin of the operator (Ang)=    0.0000    0.0000    0.0000
                  XX= -1.0845E+01              XY=  0.0000E+00              XZ=  0.0000E+00              YY= -1.0845E+01
                  YZ=  0.0000E+00              ZZ= -1.4700E+01
      In traceless form (Debye*Ang)
                  XX=  1.9275E+00              XY=  0.0000E+00              XZ=  0.0000E+00              YY=  1.9275E+00
                  YZ=  0.0000E+00              ZZ= -3.8550E+00
--

      Von Neumann Entropy (Root  6) =  2.41795


      Mulliken population analysis for root number:  6
      -----------------------------------------------


++    Molecular charges:
      ------------------

      Mulliken charges per centre and basis function type
      ---------------------------------------------------

                N1    
      1s       2.0041
      2s       1.8828
      2px      0.8943
      2pz      1.3981
      2py      0.8943
      *s       0.1329
      *px      0.1209
      *pz     -0.4237
      *py      0.1209
      *d2+     0.0000
      *d1+    -0.0152
      *d0      0.0057
      *d1-    -0.0152
      *d2-     0.0000
      Total    7.0000

      N-E     -0.0000

      Total electronic charge=   14.000000

      Total            charge=   -0.000000
--



      Expectation values of various properties for root number:  6
      -----------------------------------------------------------


++    Molecular properties:
      ---------------------

      Charge (e):
                      =   -0.0000
      Dipole Moment (Debye):
      Origin of the operator (Ang)=    0.0000    0.0000    0.0000
                   X=  0.0000E+00               Y=  0.0000E+00               Z=  0.0000E+00           Total=  0.0000E+00
      Quadrupole Moment (Debye*Ang):
      Origin of the operator (Ang)=    0.0000    0.0000    0.0000
                  XX= -1.4641E+01              XY=  0.0000E+00              XZ=  0.0000E+00              YY= -1.4641E+01
                  YZ=  0.0000E+00              ZZ= -2.0232E+01
      In traceless form (Debye*Ang)
                  XX=  2.7954E+00              XY=  0.0000E+00              XZ=  0.0000E+00              YY=  2.7954E+00
                  YZ=  0.0000E+00              ZZ= -5.5909E+00
--

      Von Neumann Entropy (Root  7) =  2.96936


      Mulliken population analysis for root number:  7
      -----------------------------------------------


++    Molecular charges:
      ------------------

      Mulliken charges per centre and basis function type
      ---------------------------------------------------

                N1    
      1s       2.0041
      2s       1.8828
      2px      0.7920
      2pz      1.3981
      2py      0.7920
      *s       0.1329
      *px      0.2058
      *pz     -0.4237
      *py      0.2058
      *d2+     0.0000
      *d1+     0.0023
      *d0      0.0057
      *d1-     0.0023
      *d2-     0.0000
      Total    7.0000

      N-E     -0.0000

      Total electronic charge=   14.000000

      Total            charge=   -0.000000
--



      Expectation values of various properties for root number:  7
      -----------------------------------------------------------


++    Molecular properties:
      ---------------------

      Charge (e):
                      =   -0.0000
      Dipole Moment (Debye):
      Origin of the operator (Ang)=    0.0000    0.0000    0.0000
                   X=  0.0000E+00               Y=  0.0000E+00               Z=  0.0000E+00           Total=  0.0000E+00
      Quadrupole Moment (Debye*Ang):
      Origin of the operator (Ang)=    0.0000    0.0000    0.0000
                  XX= -2.1021E+01              XY=  0.0000E+00              XZ=  0.0000E+00              YY= -2.1021E+01
                  YZ=  0.0000E+00              ZZ= -2.9598E+01
      In traceless form (Debye*Ang)
                  XX=  4.2882E+00              XY=  0.0000E+00              XZ=  0.0000E+00              YY=  4.2882E+00
                  YZ=  0.0000E+00              ZZ= -8.5764E+00
--

      Von Neumann Entropy (Root  8) =  2.99739


      Mulliken population analysis for root number:  8
      -----------------------------------------------


++    Molecular charges:
      ------------------

      Mulliken charges per centre and basis function type
      ---------------------------------------------------

                N1    
      1s       2.0041
      2s       1.8828
      2px      0.7914
      2pz      1.3981
      2py      0.7914
      *s       0.1329
      *px      0.2108
      *pz     -0.4237
      *py      0.2108
      *d2+     0.0000
      *d1+    -0.0023
      *d0      0.0057
      *d1-    -0.0023
      *d2-     0.0000
      Total    7.0000

      N-E     -0.0000

      Total electronic charge=   14.000000

      Total            charge=   -0.000000
--



      Expectation values of various properties for root number:  8
      -----------------------------------------------------------


++    Molecular properties:
      ---------------------

      Charge (e):
                      =   -0.0000
      Dipole Moment (Debye):
      Origin of the operator (Ang)=    0.0000    0.0000    0.0000
                   X=  0.0000E+00               Y=  0.0000E+00               Z=  0.0000E+00           Total=  0.0000E+00
      Quadrupole Moment (Debye*Ang):
      Origin of the operator (Ang)=    0.0000    0.0000    0.0000
                  XX= -2.0777E+01              XY=  0.0000E+00              XZ=  0.0000E+00              YY= -2.0777E+01
                  YZ=  0.0000E+00              ZZ= -2.9221E+01
      In traceless form (Debye*Ang)
                  XX=  4.2221E+00              XY=  0.0000E+00              XZ=  0.0000E+00              YY=  4.2221E+00
                  YZ=  0.0000E+00              ZZ= -8.4442E+00
--

      Von Neumann Entropy (Root  9) =  2.95691


      Mulliken population analysis for root number:  9
      -----------------------------------------------


++    Molecular charges:
      ------------------

      Mulliken charges per centre and basis function type
      ---------------------------------------------------

                N1    
      1s       2.0041
      2s       1.8828
      2px      0.7957
      2pz      1.3981
      2py      0.7957
      *s       0.1329
      *px      0.2013
      *pz     -0.4237
      *py      0.2013
      *d2+     0.0000
      *d1+     0.0030
      *d0      0.0057
      *d1-     0.0030
      *d2-     0.0000
      Total    7.0000

      N-E     -0.0000

      Total electronic charge=   14.000000

      Total            charge=   -0.000000
--



      Expectation values of various properties for root number:  9
      -----------------------------------------------------------


++    Molecular properties:
      ---------------------

      Charge (e):
                      =   -0.0000
      Dipole Moment (Debye):
      Origin of the operator (Ang)=    0.0000    0.0000    0.0000
                   X=  0.0000E+00               Y=  0.0000E+00               Z=  0.0000E+00           Total=  0.0000E+00
      Quadrupole Moment (Debye*Ang):
      Origin of the operator (Ang)=    0.0000    0.0000    0.0000
                  XX= -2.0879E+01              XY=  0.0000E+00              XZ=  0.0000E+00              YY= -2.0879E+01
                  YZ=  0.0000E+00              ZZ= -2.9389E+01
      In traceless form (Debye*Ang)
                  XX=  4.2551E+00              XY=  0.0000E+00              XZ=  0.0000E+00              YY=  4.2551E+00
                  YZ=  0.0000E+00              ZZ= -8.5102E+00
--

      Von Neumann Entropy (Root 10) =  2.79415


      Mulliken population analysis for root number: 10
      -----------------------------------------------


++    Molecular charges:
      ------------------

      Mulliken charges per centre and basis function type
      ---------------------------------------------------

                N1    
      1s       2.0041
      2s       1.8828
      2px      0.8556
      2pz      1.3981
      2py      0.8556
      *s       0.1329
      *px      0.1365
      *pz     -0.4237
      *py      0.1365
      *d2+     0.0000
      *d1+     0.0078
      *d0      0.0057
      *d1-     0.0078
      *d2-     0.0000
      Total    7.0000

      N-E     -0.0000

      Total electronic charge=   14.000000

      Total            charge=   -0.000000
--



      Expectation values of various properties for root number: 10
      -----------------------------------------------------------


++    Molecular properties:
      ---------------------

      Charge (e):
                      =   -0.0000
      Dipole Moment (Debye):
      Origin of the operator (Ang)=    0.0000    0.0000    0.0000
                   X=  0.0000E+00               Y=  0.0000E+00               Z=  0.0000E+00           Total=  0.0000E+00
      Quadrupole Moment (Debye*Ang):
      Origin of the operator (Ang)=    0.0000    0.0000    0.0000
                  XX= -1.8054E+01              XY=  0.0000E+00              XZ=  0.0000E+00              YY= -1.8054E+01
                  YZ=  0.0000E+00              ZZ= -2.5286E+01
      In traceless form (Debye*Ang)
                  XX=  3.6163E+00              XY=  0.0000E+00              XZ=  0.0000E+00              YY=  3.6163E+00
                  YZ=  0.0000E+00              ZZ= -7.2326E+00
--


  Input file to MOLDEN was generated!


  Input file to MOLDEN was generated!


  Input file to MOLDEN was generated!


  Input file to MOLDEN was generated!


  Input file to MOLDEN was generated!


  Input file to MOLDEN was generated!


  Input file to MOLDEN was generated!


  Input file to MOLDEN was generated!


  Input file to MOLDEN was generated!


  Input file to MOLDEN was generated!


  Input file to MOLDEN was generated!

      Average orbitals are written to the RASORB file
      Natural orbitals for root   1 are written to the RASORB.1 file
      Natural orbitals for root   2 are written to the RASORB.2 file
      Natural orbitals for root   3 are written to the RASORB.3 file
      Natural orbitals for root   4 are written to the RASORB.4 file
      Natural orbitals for root   5 are written to the RASORB.5 file
      Natural orbitals for root   6 are written to the RASORB.6 file
      Natural orbitals for root   7 are written to the RASORB.7 file
      Natural orbitals for root   8 are written to the RASORB.8 file
      Natural orbitals for root   9 are written to the RASORB.9 file
      Natural orbitals for root  10 are written to the RASORB.10 file
      Spin density orbitals for root   1 are written to the SPDORB.1 file
      Spin density orbitals for root   2 are written to the SPDORB.2 file
      Spin density orbitals for root   3 are written to the SPDORB.3 file
      Spin density orbitals for root   4 are written to the SPDORB.4 file
      Spin density orbitals for root   5 are written to the SPDORB.5 file
      Spin density orbitals for root   6 are written to the SPDORB.6 file
      Spin density orbitals for root   7 are written to the SPDORB.7 file
      Spin density orbitals for root   8 are written to the SPDORB.8 file
      Spin density orbitals for root   9 are written to the SPDORB.9 file
      Spin density orbitals for root  10 are written to the SPDORB.10 file

 ###############################################################################
 ###############################################################################
 ###                                                                         ###
 ###                                                                         ###
 ###    WARNING: RunFile label BirthCertificate                              ###
 ###    was used       50 times                                              ###
 ###                                                                         ###
 ###                                                                         ###
 ###############################################################################
 ###############################################################################
 ###############################################################################
 ###############################################################################
 ###                                                                         ###
 ###                                                                         ###
 ###    WARNING: RunFile label nBas                                          ###
 ###    was used       57 times                                              ###
 ###                                                                         ###
 ###                                                                         ###
 ###############################################################################
 ###############################################################################
--- Stop Module: rasscf at Mon Aug  3 23:00:31 2020 /rc=_RC_ALL_IS_WELL_ ---
*** files: symmetry.rasscf.molden symmetry.rasscf.molden.1 symmetry.rasscf.molden.2 symmetry.rasscf.molden.3 symmetry.rasscf.molden.4 symmetry.rasscf.molden.5
           symmetry.rasscf.molden.6 symmetry.rasscf.molden.7 symmetry.rasscf.molden.8 symmetry.rasscf.molden.9 symmetry.rasscf.molden.10 symmetry.RasOrb symmetry.RasOrb.1
           symmetry.RasOrb.2 symmetry.RasOrb.3 symmetry.RasOrb.4 symmetry.RasOrb.5 symmetry.RasOrb.6 symmetry.RasOrb.7 symmetry.RasOrb.8 symmetry.RasOrb.9 symmetry.RasOrb.10
           symmetry.rasscf.h5 symmetry.SpdOrb.1 symmetry.SpdOrb.2 symmetry.SpdOrb.3 symmetry.SpdOrb.4 symmetry.SpdOrb.5 symmetry.SpdOrb.6 symmetry.SpdOrb.7 symmetry.SpdOrb.8
           symmetry.SpdOrb.9 symmetry.SpdOrb.10 xmldump
    saved to directory /home/gayverjr/OpenCAP/molcas_tests
--- Module rasscf spent 3 seconds ---

*** symbolic link created: INPORB -> symmetry.RasOrb
--- Start Module: caspt2 at Mon Aug  3 23:00:31 2020 ---

()()()()()()()()()()()()()()()()()()()()()()()()()()()()()()()()()()()()()()()()()()()()()()()()()()

                                              &CASPT2

                                   only a single process is used
                       available to each process: 20 GB of memory, 16 threads
                                             pid: 16221
()()()()()()()()()()()()()()()()()()()()()()()()()()()()()()()()()()()()()()()()()()()()()()()()()()


++    Wave function specifications:
      -----------------------------

      Number of closed shell electrons           6
      Number of electrons in active shells       4
      Max number of holes in RAS1 space          0
      Max number of electrons in RAS3 space      0
      Number of inactive orbitals                3
      Number of active orbitals                  6
      Number of secondary orbitals              35
      Spin quantum number                      0.0
      State symmetry                             1
      Number of CSFs                            33
      Number of root(s) available               10
      Root passed to geometry opt.              10
      A file JOBMIX will be created
      This is a MULTI-STATE CASSCF reference
      Number of CI roots used                   10
      These are:                                 1   2   3   4   5   6   7   8   9  10
      Off-diagonal elements of Heff are computed
--

++    Orbital specifications:
      -----------------------

      Symmetry species                           1   2   3   4   5   6   7   8
                                                ag b3u b2u b1g b1u b2g b3g  au
      Frozen orbitals                            1   0   0   0   1   0   0   0
      Inactive orbitals                          2   0   0   0   1   0   0   0
      Active orbitals                            0   1   1   0   0   2   2   0
      Secondary orbitals                         8   4   4   2   9   3   3   2
      Deleted orbitals                           0   0   0   0   0   0   0   0
      Number of basis functions                 11   5   5   2  11   5   5   2
--

++    CASPT2 specifications:
      ----------------------

      Type of calculation                        MS-CASPT2
      Fock operator                              state-specific
      IPEA shift                                 0.25
      Real shift                                 0.00
      Imaginary shift                            0.00
      The input orbitals will be transformed to quasi-canonical
--

--------------------------------------------------------------------------------
 Estimated memory requirements:
  POLY3 :                   252758
  RHS:                      252140
  SIGMA :                   253808
  PRPCTL:                        0
 Available workspace:   2249994103

++ CASPT2 computation for group   1

********************************************************************************
 Multi-State initialization phase begins for group   1
--------------------------------------------------------------------------------
********************************************************************************
 Compute H0 matrices for state    1
--------------------------------------------------------------------------------
--------------------------------------------------------------------------------
 H0 matrices have been computed.

********************************************************************************
  CASPT2 EQUATION SOLUTION
--------------------------------------------------------------------------------

  Total nr of CASPT2 parameters:
   Before reduction:        8704
   After  reduction:        7803

 The contributions to the second order correlation energy in atomic units.
-----------------------------------------------------------------------------------------------------------------------------
  IT.      VJTU        VJTI        ATVX        AIVX        VJAI        BVAT        BJAT        BJAI        TOTAL       RNORM  
-----------------------------------------------------------------------------------------------------------------------------
   1     0.000000   -0.007680   -0.018736   -0.074011   -0.013002   -0.025118   -0.054928   -0.048981   -0.242455    0.004290
   2     0.000000   -0.007749   -0.018835   -0.074120   -0.013017   -0.025125   -0.054911   -0.048997   -0.242753    0.000424
   3     0.000000   -0.007757   -0.018843   -0.074145   -0.013019   -0.025125   -0.054919   -0.049000   -0.242806    0.000030
   4     0.000000   -0.007757   -0.018843   -0.074144   -0.013018   -0.025124   -0.054919   -0.049000   -0.242805    0.000003
-----------------------------------------------------------------------------------------------------------------------------

  FINAL CASPT2 RESULT:

      Reference energy:        -109.0245661879
      E2 (Non-variational):      -0.2428045209
      E2 (Variational):          -0.2428045376
      Total energy:            -109.2673707255
      Residual norm:              0.0000002545
      Reference weight:           0.92771

      Contributions to the CASPT2 correlation energy
      Active & Virtual Only:         -0.0439673013
      One Inactive Excited:          -0.1290619581
      Two Inactive Excited:          -0.0697752615


++ Denominators, etc.
--------------------------------------------------------------------------------------------------------------
 Report on small energy denominators, large coefficients, and large energy contributions.
CASE  SYMM ACTIVE-MIX  NON-ACTIVE INDICES          DENOMINATOR     RHS VALUE       COEFFICIENT     CONTRIBUTION
VJTIP    1  Mu1.0004  In5.002 In5.002               1.88031373      0.06738974     -0.03613333     -0.00243502
VJTIP    1  Mu1.0006  In5.002 In5.002               2.02033026      0.06011901     -0.02972992     -0.00178733
ATVX     2  Mu2.0001  Se2.002                       0.62235376     -0.03182831      0.04451465     -0.00141683
ATVX     2  Mu2.0001  Se2.003                       1.28417316     -0.03786057      0.02559763     -0.00096914
ATVX     2  Mu2.0001  Se2.004                       1.59100519      0.06457352     -0.03544182     -0.00228860
ATVX     3  Mu3.0001  Se3.002                       0.62235313     -0.03182831      0.04451470     -0.00141683
ATVX     3  Mu3.0001  Se3.003                       1.28417253     -0.03786056      0.02559764     -0.00096914
ATVX     3  Mu3.0001  Se3.004                       1.59100457      0.06457353     -0.03544184     -0.00228860
AIVX     1  Mu1.0001  In1.003 Se1.004               0.67979457     -0.02481344      0.02991718     -0.00074235
AIVX     1  Mu1.0001  In1.003 Se1.007               1.24309022      0.04479196     -0.03272005     -0.00146560
AIVX     1  Mu1.0001  In5.002 Se5.005               1.43226113     -0.05703174      0.03763194     -0.00214621
AIVX     5  Mu5.0008  In5.002 Se1.004               1.70081838      0.04987978     -0.02858873     -0.00142600
AIVX     5  Mu5.0008  In5.002 Se1.008               2.72346812      0.08126351     -0.02878079     -0.00233883
AIVX     5  Mu5.0008  In1.002 Se5.005               2.95351192      0.08893900     -0.02940802     -0.00261552
AIVX     5  Mu5.0008  In1.003 Se5.005               2.13386649     -0.06955854      0.03225920     -0.00224390
AIVX     5  Mu5.0008  In1.002 Se5.008               3.61543951     -0.14074440      0.03801335     -0.00535017
AIVX     5  Mu5.0008  In1.003 Se5.008               2.79579409      0.15370610     -0.05376033     -0.00826329
--

   (Skipping property calculation,
    use PROP keyword to activate)
--


++ CASPT2 computation for group   2

********************************************************************************
 Multi-State initialization phase begins for group   2
--------------------------------------------------------------------------------
********************************************************************************
 Compute H0 matrices for state    2
--------------------------------------------------------------------------------
--------------------------------------------------------------------------------
 H0 matrices have been computed.

********************************************************************************
  CASPT2 EQUATION SOLUTION
--------------------------------------------------------------------------------

  Total nr of CASPT2 parameters:
   Before reduction:        8704
   After  reduction:        8046

 The contributions to the second order correlation energy in atomic units.
-----------------------------------------------------------------------------------------------------------------------------
  IT.      VJTU        VJTI        ATVX        AIVX        VJAI        BVAT        BJAT        BJAI        TOTAL       RNORM  
-----------------------------------------------------------------------------------------------------------------------------
   1     0.000000   -0.003472   -0.004973   -0.052557   -0.014564   -0.021619   -0.064961   -0.049222   -0.211368    0.003404
   2     0.000000   -0.003473   -0.004996   -0.052562   -0.014562   -0.021651   -0.065004   -0.049230   -0.211478    0.001951
   3     0.000000   -0.003473   -0.004989   -0.052559   -0.014563   -0.021646   -0.065005   -0.049230   -0.211465    0.001871
   4     0.000000   -0.003474   -0.005013   -0.052565   -0.014560   -0.021688   -0.065060   -0.049240   -0.211600    0.000036
   5     0.000000   -0.003474   -0.005013   -0.052566   -0.014560   -0.021688   -0.065061   -0.049240   -0.211603    0.000004
-----------------------------------------------------------------------------------------------------------------------------

  FINAL CASPT2 RESULT:

      Reference energy:        -108.4078722577
      E2 (Non-variational):      -0.2116029002
      E2 (Variational):          -0.2116028794
      Total energy:            -108.6194751371
      Residual norm:              0.0000002870
      Reference weight:           0.93615

      Contributions to the CASPT2 correlation energy
      Active & Virtual Only:         -0.0267014133
      One Inactive Excited:          -0.1176269511
      Two Inactive Excited:          -0.0672745359


++ Denominators, etc.
--------------------------------------------------------------------------------------------------------------
 Report on small energy denominators, large coefficients, and large energy contributions.
CASE  SYMM ACTIVE-MIX  NON-ACTIVE INDICES          DENOMINATOR     RHS VALUE       COEFFICIENT     CONTRIBUTION
ATVX     2  Mu2.0001  Se2.002                      -0.24833617      0.00738739      0.02332317      0.00017230
ATVX     2  Mu2.0001  Se2.004                       0.67650927     -0.02041942      0.02842670     -0.00058046
ATVX     3  Mu3.0001  Se3.002                      -0.24833611      0.00738739      0.02332317      0.00017230
ATVX     3  Mu3.0001  Se3.004                       0.67650933     -0.02041941      0.02842669     -0.00058046
AIVX     1  Mu1.0002  In1.002 Se1.006               2.17684378     -0.05762159      0.02644117     -0.00152358
AIVX     1  Mu1.0002  In1.003 Se1.006               1.30115778     -0.03272281      0.02568032     -0.00084033
AIVX     1  Mu1.0002  In1.002 Se1.010               3.84063455     -0.10846522      0.02809227     -0.00304703
AIVX     1  Mu1.0002  In5.002 Se5.006               1.74312428     -0.05567795      0.03216452     -0.00179085
AIVX     1  Mu1.0002  In5.002 Se5.009               3.52722664     -0.11248945      0.03180760     -0.00357802
AIVX     4  Mu4.0002  In5.002 Se8.001               1.71080802     -0.05177345      0.03047465     -0.00157778
AIVX     4  Mu4.0002  In5.002 Se8.002               3.49491039      0.10338358     -0.02950635     -0.00305047
AIVX     5  Mu5.0002  In1.002 Se5.005               1.86837020      0.07401698     -0.03938346     -0.00291504
AIVX     5  Mu5.0002  In1.002 Se5.008               2.49274209     -0.06744470      0.02682109     -0.00180894
BVATP    1  Mu1.0001  Se5.003 Se5.003               0.27617385      0.00000000     -0.00000000     -0.00000000
--

   (Skipping property calculation,
    use PROP keyword to activate)
--


++ CASPT2 computation for group   3

********************************************************************************
 Multi-State initialization phase begins for group   3
--------------------------------------------------------------------------------
********************************************************************************
 Compute H0 matrices for state    3
--------------------------------------------------------------------------------
--------------------------------------------------------------------------------
 H0 matrices have been computed.

********************************************************************************
  CASPT2 EQUATION SOLUTION
--------------------------------------------------------------------------------

  Total nr of CASPT2 parameters:
   Before reduction:        8704
   After  reduction:        6426

 The contributions to the second order correlation energy in atomic units.
-----------------------------------------------------------------------------------------------------------------------------
  IT.      VJTU        VJTI        ATVX        AIVX        VJAI        BVAT        BJAT        BJAI        TOTAL       RNORM  
-----------------------------------------------------------------------------------------------------------------------------
   1     0.000000   -0.000937   -0.004797   -0.051417   -0.014639   -0.023636   -0.064688   -0.049225   -0.209339    0.002833
   2     0.000000   -0.000937   -0.004788   -0.051415   -0.014636   -0.023709   -0.064777   -0.049239   -0.209500    0.000246
   3     0.000000   -0.000937   -0.004785   -0.051419   -0.014637   -0.023713   -0.064786   -0.049242   -0.209518    0.000025
   4     0.000000   -0.000937   -0.004784   -0.051418   -0.014637   -0.023713   -0.064786   -0.049241   -0.209517    0.000002
-----------------------------------------------------------------------------------------------------------------------------

  FINAL CASPT2 RESULT:

      Reference energy:        -108.3385088714
      E2 (Non-variational):      -0.2095169094
      E2 (Variational):          -0.2095169180
      Total energy:            -108.5480257894
      Residual norm:              0.0000001715
      Reference weight:           0.93939

      Contributions to the CASPT2 correlation energy
      Active & Virtual Only:         -0.0284973990
      One Inactive Excited:          -0.1162039987
      Two Inactive Excited:          -0.0648155117


++ Denominators, etc.
--------------------------------------------------------------------------------------------------------------
 Report on small energy denominators, large coefficients, and large energy contributions.
CASE  SYMM ACTIVE-MIX  NON-ACTIVE INDICES          DENOMINATOR     RHS VALUE       COEFFICIENT     CONTRIBUTION
ATVX     2  Mu2.0001  Se2.002                      -0.24663484     -0.00000000     -0.00009466      0.00000000
ATVX     3  Mu3.0001  Se3.002                      -0.24663484     -0.00000000      0.00009466     -0.00000000
BVATP    1  Mu1.0001  Se5.003 Se5.003               0.27491880      0.00000000     -0.00000000     -0.00000000
--

   (Skipping property calculation,
    use PROP keyword to activate)
--


[...]

--

  THE ORIGINAL CI ARRAYS ARE NOW MIXED AS LINEAR
  COMBINATIONS, GIVEN BY THE EIGENVECTORS.
  A NEW JOBIPH FILE NAMED 'JOBMIX' IS PREPARED.
********************************************************************************

++ Mixed CI coefficients:
  The CI coefficients for the MIXED state nr.   1
--------------------------------------------------------------------------------
 CI COEFFICIENTS LARGER THAN  0.50D-01
  Occupation of active orbitals, and spin coupling
  of open shells. (u,d: Spin up or down).
  SGUGA info is (Midvert:IsyUp:UpperWalk/LowerWalk)
        Conf  SGUGA info        Occupation    Coefficient         Weight
           1  ( 1:1:   1/   1)   2 2 00 00       0.967288       0.935646
           3  ( 1:1:   1/   3)   0 2 20 00      -0.129607       0.016798
           6  ( 2:7:   1/   1)   u d u0 d0       0.118919       0.014142
           8  ( 2:7:   1/   2)   u u d0 d0      -0.108368       0.011744
          11  ( 3:1:   2/   1)   2 0 00 20      -0.129607       0.016798

  The CI coefficients for the MIXED state nr.   2
--------------------------------------------------------------------------------
 CI COEFFICIENTS LARGER THAN  0.50D-01
  Occupation of active orbitals, and spin coupling
  of open shells. (u,d: Spin up or down).
  SGUGA info is (Midvert:IsyUp:UpperWalk/LowerWalk)
        Conf  SGUGA info        Occupation    Coefficient         Weight
           1  ( 1:1:   1/   1)   2 2 00 00       0.081739       0.006681
           2  ( 1:1:   1/   2)   2 0 20 00      -0.115352       0.013306
           3  ( 1:1:   1/   3)   0 2 20 00       0.372850       0.139017
           6  ( 2:7:   1/   1)   u d u0 d0      -0.478431       0.228896
           8  ( 2:7:   1/   2)   u u d0 d0      -0.674464       0.454902
          11  ( 3:1:   2/   1)   2 0 00 20       0.372850       0.139017
          15  ( 3:1:   2/   2)   0 2 00 20      -0.115352       0.013306

  The CI coefficients for the MIXED state nr.   3
--------------------------------------------------------------------------------
 CI COEFFICIENTS LARGER THAN  0.50D-01
  Occupation of active orbitals, and spin coupling
  of open shells. (u,d: Spin up or down).
  SGUGA info is (Midvert:IsyUp:UpperWalk/LowerWalk)
        Conf  SGUGA info        Occupation    Coefficient         Weight
           2  ( 1:1:   1/   2)   2 0 20 00      -0.346145       0.119816
           3  ( 1:1:   1/   3)   0 2 20 00       0.352144       0.124005
           6  ( 2:7:   1/   1)   u d u0 d0       0.710517       0.504834
          11  ( 3:1:   2/   1)   2 0 00 20       0.352144       0.124005
          15  ( 3:1:   2/   2)   0 2 00 20      -0.346145       0.119816

  The CI coefficients for the MIXED state nr.   4
--------------------------------------------------------------------------------
 CI COEFFICIENTS LARGER THAN  0.50D-01
  Occupation of active orbitals, and spin coupling
  of open shells. (u,d: Spin up or down).
  SGUGA info is (Midvert:IsyUp:UpperWalk/LowerWalk)
        Conf  SGUGA info        Occupation    Coefficient         Weight
           2  ( 1:1:   1/   2)   2 0 20 00       0.277403       0.076952
           3  ( 1:1:   1/   3)   0 2 20 00      -0.626851       0.392942
           5  ( 2:6:   1/   2)   0 2 ud 00      -0.134586       0.018114
           9  ( 2:7:   2/   2)   u u d0 0d      -0.077815       0.006055
          11  ( 3:1:   2/   1)   2 0 00 20       0.626850       0.392942
          12  ( 3:1:   3/   1)   2 0 00 ud       0.134586       0.018114
          15  ( 3:1:   2/   2)   0 2 00 20      -0.277403       0.076952
          24  ( 4:4:   1/   1)   u u 0d d0       0.077815       0.006055

  The CI coefficients for the MIXED state nr.   5
--------------------------------------------------------------------------------
 CI COEFFICIENTS LARGER THAN  0.50D-01
  Occupation of active orbitals, and spin coupling
  of open shells. (u,d: Spin up or down).
  SGUGA info is (Midvert:IsyUp:UpperWalk/LowerWalk)
        Conf  SGUGA info        Occupation    Coefficient         Weight
           2  ( 1:1:   1/   2)   2 0 20 00      -0.644010       0.414749
           3  ( 1:1:   1/   3)   0 2 20 00      -0.264372       0.069892
           4  ( 2:6:   1/   1)   2 0 ud 00      -0.112931       0.012753
          11  ( 3:1:   2/   1)   2 0 00 20       0.264372       0.069892
          15  ( 3:1:   2/   2)   0 2 00 20       0.644010       0.414749
          16  ( 3:1:   3/   2)   0 2 00 ud       0.112931       0.012753

  The CI coefficients for the MIXED state nr.   6
--------------------------------------------------------------------------------
 CI COEFFICIENTS LARGER THAN  0.50D-01
  Occupation of active orbitals, and spin coupling
  of open shells. (u,d: Spin up or down).
  SGUGA info is (Midvert:IsyUp:UpperWalk/LowerWalk)
        Conf  SGUGA info        Occupation    Coefficient         Weight
           2  ( 1:1:   1/   2)   2 0 20 00       0.597198       0.356646
           3  ( 1:1:   1/   3)   0 2 20 00       0.281929       0.079484
           4  ( 2:6:   1/   1)   2 0 ud 00       0.088180       0.007776
           6  ( 2:7:   1/   1)   u d u0 d0       0.302641       0.091592
           8  ( 2:7:   1/   2)   u u d0 d0      -0.096630       0.009337
          11  ( 3:1:   2/   1)   2 0 00 20       0.281928       0.079484
          15  ( 3:1:   2/   2)   0 2 00 20       0.597198       0.356646
          16  ( 3:1:   3/   2)   0 2 00 ud       0.088180       0.007776

  The CI coefficients for the MIXED state nr.   7
--------------------------------------------------------------------------------
 CI COEFFICIENTS LARGER THAN  0.50D-01
  Occupation of active orbitals, and spin coupling
  of open shells. (u,d: Spin up or down).
  SGUGA info is (Midvert:IsyUp:UpperWalk/LowerWalk)
        Conf  SGUGA info        Occupation    Coefficient         Weight
           4  ( 2:6:   1/   1)   2 0 ud 00      -0.105545       0.011140
           5  ( 2:6:   1/   2)   0 2 ud 00       0.212520       0.045165
           7  ( 2:7:   2/   1)   u d u0 0d       0.506201       0.256239
           9  ( 2:7:   2/   2)   u u d0 0d       0.428613       0.183709
          12  ( 3:1:   3/   1)   2 0 00 ud      -0.212520       0.045165
          16  ( 3:1:   3/   2)   0 2 00 ud       0.105545       0.011140
          22  ( 3:4:   1/   1)   u d 0u d0      -0.506201       0.256239
          24  ( 4:4:   1/   1)   u u 0d d0      -0.428613       0.183709

  The CI coefficients for the MIXED state nr.   8
--------------------------------------------------------------------------------
 CI COEFFICIENTS LARGER THAN  0.50D-01
  Occupation of active orbitals, and spin coupling
  of open shells. (u,d: Spin up or down).
  SGUGA info is (Midvert:IsyUp:UpperWalk/LowerWalk)
        Conf  SGUGA info        Occupation    Coefficient         Weight
           4  ( 2:6:   1/   1)   2 0 ud 00      -0.127732       0.016316
           5  ( 2:6:   1/   2)   0 2 ud 00       0.379181       0.143779
           7  ( 2:7:   2/   1)   u d u0 0d      -0.350256       0.122680
           9  ( 2:7:   2/   2)   u u d0 0d      -0.457351       0.209170
          12  ( 3:1:   3/   1)   2 0 00 ud       0.379181       0.143779
          16  ( 3:1:   3/   2)   0 2 00 ud      -0.127732       0.016316
          22  ( 3:4:   1/   1)   u d 0u d0      -0.350256       0.122680
          23  ( 3:4:   2/   1)   u d 0u 0d       0.055684       0.003101
          24  ( 4:4:   1/   1)   u u 0d d0      -0.457351       0.209170
          25  ( 4:4:   2/   1)   u u 0d 0d       0.062407       0.003895

  The CI coefficients for the MIXED state nr.   9
--------------------------------------------------------------------------------
 CI COEFFICIENTS LARGER THAN  0.50D-01
  Occupation of active orbitals, and spin coupling
  of open shells. (u,d: Spin up or down).
  SGUGA info is (Midvert:IsyUp:UpperWalk/LowerWalk)
        Conf  SGUGA info        Occupation    Coefficient         Weight
           2  ( 1:1:   1/   2)   2 0 20 00      -0.070583       0.004982
           3  ( 1:1:   1/   3)   0 2 20 00       0.065170       0.004247
           4  ( 2:6:   1/   1)   2 0 ud 00       0.426906       0.182249
           5  ( 2:6:   1/   2)   0 2 ud 00      -0.393908       0.155164
           7  ( 2:7:   2/   1)   u d u0 0d       0.367717       0.135216
           9  ( 2:7:   2/   2)   u u d0 0d      -0.119904       0.014377
          11  ( 3:1:   2/   1)   2 0 00 20      -0.065170       0.004247
          12  ( 3:1:   3/   1)   2 0 00 ud       0.393909       0.155165
          15  ( 3:1:   2/   2)   0 2 00 20       0.070583       0.004982
          16  ( 3:1:   3/   2)   0 2 00 ud      -0.426907       0.182249
          22  ( 3:4:   1/   1)   u d 0u d0      -0.367715       0.135215
          24  ( 4:4:   1/   1)   u u 0d d0       0.119904       0.014377

  The CI coefficients for the MIXED state nr.  10
--------------------------------------------------------------------------------
 CI COEFFICIENTS LARGER THAN  0.50D-01
  Occupation of active orbitals, and spin coupling
  of open shells. (u,d: Spin up or down).
  SGUGA info is (Midvert:IsyUp:UpperWalk/LowerWalk)
        Conf  SGUGA info        Occupation    Coefficient         Weight
           4  ( 2:6:   1/   1)   2 0 ud 00      -0.349489       0.122142
           5  ( 2:6:   1/   2)   0 2 ud 00       0.347284       0.120606
           6  ( 2:7:   1/   1)   u d u0 d0      -0.061092       0.003732
           7  ( 2:7:   2/   1)   u d u0 0d       0.498481       0.248484
          12  ( 3:1:   3/   1)   2 0 00 ud       0.347283       0.120605
          16  ( 3:1:   3/   2)   0 2 00 ud      -0.349487       0.122141
          22  ( 3:4:   1/   1)   u d 0u d0       0.498482       0.248485
          23  ( 3:4:   2/   1)   u d 0u 0d      -0.070608       0.004986

--

--- Stop Module: caspt2 at Mon Aug  3 23:00:33 2020 /rc=_RC_ALL_IS_WELL_ ---
*** files: xmldump
    saved to directory /home/gayverjr/OpenCAP/molcas_tests
--- Module caspt2 spent 1 second ---

*** symbolic link created: INPORB -> symmetry.RasOrb
--- Start Module: rassi at Mon Aug  3 23:00:33 2020 ---

()()()()()()()()()()()()()()()()()()()()()()()()()()()()()()()()()()()()()()()()()()()()()()()()()()

                                               &RASSI

                                   only a single process is used
                       available to each process: 20 GB of memory, 16 threads
                                             pid: 16260
()()()()()()()()()()()()()()()()()()()()()()()()()()()()()()()()()()()()()()()()()()()()()()()()()()


      ********************************************************************************
      *                                                                              *
      *                             General data section                             *
      *                                                                              *
      ********************************************************************************

   Specific data for JOBIPH file JOBIPH                                                                                                                          
   -------------------------------------

   Header from SEWARD:
                                                                               
        Integrals generated by seward 4.2.0  , Mon Aug  3 23:00:25 2020        

   CASSCF title (first line only):
       (No title given)                                                        

   STATE IRREP:                            1
   SPIN MULTIPLICITY:                      1
   ACTIVE ELECTRONS:                       4
   MAX RAS1 HOLES:                         0
   MAX RAS3 ELECTRONS:                     0
   NR OF CONFIG:                          33

  Info: creating TDMFILE
        estimated file size                   369 kB
        TDMs in AO format


   The following data are common to all the states:
   ------------------------------------------------
   (note: frozen counts as inactive, deleted as secondary)

      Nr of irreps: 8

                 Total     No./Irrep 
      Irrep                  1   2   3   4   5   6   7   8
                            ag b3u b2u b1g b1u b2g b3g  au

      INACTIVE       5       3   0   0   0   2   0   0   0
      ACTIVE         6       0   1   1   0   0   2   2   0
      SECONDARY     35       8   4   4   2   9   3   3   2
      BASIS         46      11   5   5   2  11   5   5   2

      RAS1           0       0   0   0   0   0   0   0   0
      RAS2           6       0   1   1   0   0   2   2   0
      RAS3           0       0   0   0   0   0   0   0   0

        MATRIX ELEMENTS WILL BE COMPUTED FOR THE FOLLOWING ONE-ELECTRON OPERATORS, UNLESS ZERO BY SYMMETRY.
   (Herm=Hermitian, Anti=Antihermitian, Sing=Singlet operator, Trip=Triplet operator)
     MLTPL  0   1 (HERMSING)     MLTPL  1   1 (HERMSING)     MLTPL  1   2 (HERMSING)
     MLTPL  1   3 (HERMSING)     MLTPL  2   1 (HERMSING)     MLTPL  2   2 (HERMSING)
     MLTPL  2   3 (HERMSING)     MLTPL  2   4 (HERMSING)     MLTPL  2   5 (HERMSING)
     MLTPL  2   6 (HERMSING)     VELOCITY   1 (ANTISING)     VELOCITY   2 (ANTISING)
     VELOCITY   3 (ANTISING)     ANGMOM     1 (ANTISING)     ANGMOM     2 (ANTISING)
     ANGMOM     3 (ANTISING)     MLTPV  2   1 (ANTISING)     MLTPV  2   2 (ANTISING)
     MLTPV  2   3 (ANTISING)     MLTPV  2   4 (ANTISING)     MLTPV  2   5 (ANTISING)
     MLTPV  2   6 (ANTISING)

       EIGENSTATES OF A SPIN-FREE HAMILTONIAN WILL BE COMPUTED BASED ON:

  a (effective) Hamiltonian matrix that was read from the wavefunction file(s).
  SO coupling elements will be added.
       EIGENSTATES OF SPIN-ORBIT HAMILTONIAN WILL BE COMPUTED
        MATRIX ELEMENTS OVER SPIN EIGENSTATES FOR:
     MLTPL  0   1 (HERMSING)     MLTPL  1   1 (HERMSING)     MLTPL  1   2 (HERMSING)
     MLTPL  1   3 (HERMSING)     MLTPL  2   1 (HERMSING)     MLTPL  2   2 (HERMSING)
     MLTPL  2   3 (HERMSING)     MLTPL  2   4 (HERMSING)     MLTPL  2   5 (HERMSING)
     MLTPL  2   6 (HERMSING)     VELOCITY   1 (ANTISING)     VELOCITY   2 (ANTISING)
     VELOCITY   3 (ANTISING)     ANGMOM     1 (ANTISING)     ANGMOM     2 (ANTISING)
     ANGMOM     3 (ANTISING)     MLTPV  2   1 (ANTISING)     MLTPV  2   2 (ANTISING)
     MLTPV  2   3 (ANTISING)     MLTPV  2   4 (ANTISING)     MLTPV  2   5 (ANTISING)
     MLTPV  2   6 (ANTISING)

  Nr of states:                   10

   State:        1   2   3   4   5   6   7   8   9  10
  JobIph:        1   1   1   1   1   1   1   1   1   1
 Root nr:        1   2   3   4   5   6   7   8   9  10

  HAMILTONIAN MATRIX FOR THE ORIGINAL STATES:

  Diagonal, with energies
   -109.26737073   -108.61947514   -108.54802579   -108.47536865   -108.44882379
   -108.45218210   -108.29870335   -108.30713695   -108.24931859   -108.27884169

      OVERLAP MATRIX FOR THE ORIGINAL STATES:

  Diagonal, with elements
      1.00000000      1.00000000      1.00000000      1.00000000      1.00000000
      1.00000000      1.00000000      1.00000000      1.00000000      1.00000000

::    RASSI State    1     Total energy:   -109.26737073
::    RASSI State    2     Total energy:   -108.61947514
::    RASSI State    3     Total energy:   -108.54802579
::    RASSI State    4     Total energy:   -108.47536865
::    RASSI State    5     Total energy:   -108.44882379
::    RASSI State    6     Total energy:   -108.45218210
::    RASSI State    7     Total energy:   -108.29870335
::    RASSI State    8     Total energy:   -108.30713695
::    RASSI State    9     Total energy:   -108.24931859
::    RASSI State   10     Total energy:   -108.27884169



      ****************************************************************************************************
      *                                                                                                  *
      *                                         Spin-free section                                        *
      *                                                                                                  *
      *                 Note: index according to input order, order according to energy.                 *
      *                                                                                                  *
      ****************************************************************************************************



  SPIN-FREE ENERGIES:
  (Shifted by EMIN (a.u.) =       -109.2673707255)

 SF State       Relative EMIN(au)   Rel lowest level(eV)    D:o, cm**(-1)      L_eff

     1             0.0000000000        0.0000000000              0.0000         0.0
     2             0.6478955884       17.6301371022         142196.6454         0.0
     3             0.7193449361       19.5743729000         157877.9647         0.0
     4             0.7920020758       21.5514743910         173824.3636         0.0
     6             0.8151886249       22.1824125362         178913.2229         0.0
     5             0.8185469337       22.2737967743         179650.2865         0.0
     8             0.9602337705       26.1292920149         210746.9528         0.0
     7             0.9686673709       26.3587819740         212597.9141         0.0
    10             0.9885290396       26.8992455120         216957.0466         0.0
     9             1.0180521354       27.7026098749         223436.6171         0.0
 Electric-dipole - electric-octupole not included
 Electric-dipole - magnetic-quadrupole not included


      ****************************************************************************************************
      *                                                                                                  *
      *                                    Special properties section                                    *
      *                                                                                                  *
      ****************************************************************************************************


++ I/O STATISTICS
 
  I. General I/O information
  - - - - - - - - - - - - - - - - - - - - - - - - - - - - - - - - - - - - - - - - - - -
  Unit  Name          Flsize      Write/Read            MBytes           Write/Read
                      (MBytes)       Calls              In/Out           Time, sec.
  - - - - - - - - - - - - - - - - - - - - - - - - - - - - - - - - - - - - - - - - - - -
   1  SCRATCH           0.00 .      10/      55 .      0.0/      0.0 .       0/       0
   2  ANNI              0.00 .       0/       0 .      0.0/      0.0 .       0/       0
   3  RUNFILE          13.12 .     182/    1188 .      1.3/      8.6 .       0/       0
   4  ONEINT            1.40 .       0/    2032 .      0.0/   2213.1 .       0/       0
   5  JOBIPH            1.22 .       0/      98 .      0.0/      1.2 .       0/       0
   6  TDMFILE           0.32 .     108/     108 .      0.3/      0.3 .       0/       0
  - - - - - - - - - - - - - - - - - - - - - - - - - - - - - - - - - - - - - - - - - - -
   *  TOTAL            16.06 .     300/    3481 .      1.6/   2223.2 .       0/       0
  - - - - - - - - - - - - - - - - - - - - - - - - - - - - - - - - - - - - - - - - - - -
 
  II. I/O Access Patterns
  - - - - - - - - - - - - - - - - - - - -
  Unit  Name               % of random
                         Write/Read calls
  - - - - - - - - - - - - - - - - - - - -
   1  SCRATCH             90.0/ 100.0
   2  ANNI                 0.0/   0.0
   3  RUNFILE             28.6/  10.9
   4  ONEINT               0.0/  97.2
   5  JOBIPH               0.0/  75.5
   6  TDMFILE             99.1/ 100.0
  - - - - - - - - - - - - - - - - - - - -
--
--- Stop Module: rassi at Mon Aug  3 23:00:34 2020 /rc=_RC_ALL_IS_WELL_ ---
*** files: symmetry.rassi.h5 xmldump
    saved to directory /home/gayverjr/OpenCAP/molcas_tests

.##################.
.# Happy landing! #.
.##################.

    Timing: Wall=10.78 User=8.28 System=3.78
