******************************************************
*** WorkDir and CurrDir are the same, not cleaned! ***
******************************************************
   This run of MOLCAS is using the pymolcas driver

                             OPE
                             OPE          NMOL  CASOP  ENMOLC A   SO
                 OPE        NMOLC        AS  OP EN  MO LC     AS  OP
                OPENM       OL CA        SO  PE NM  OL CA     SOP EN
                OP EN      MO   LC       AS  OP ENMOL  CASO   PENMOL
                OP  EN     MO   LC       AS  OP EN     MO     LC ASO
               OP   E  NMOL  C  AS       OP  EN MO     LC     AS  OP
               OP  E   NMO   LC AS        OPEN  MO     LCASOP EN   M
               O  PEN   MO  LCA  SO
            OPE   NMO   L   CAS    OP
        OPENMOL  CASOP     ENMOL   CASOPE
     OPENMOLCA   SOPENMOLCASOPEN   MOLCASOPE
    OPENMOLCAS   OP           EN   MOL    CAS
    OPENMOLCAS       OP  ENM        O     LCA
    OPENMOLCAS    OPEN  MOLCASO     P  E  NMO
    OPENMOLCAS     OP               E  N  MOL
    OPENMOLCA   SO           PENM   O  L  CAS    OPEN    MO    LCAS
    OPENMOLCA   SOP           ENM   O  L  CAS   OP  EN  MOLC  AS   O
    OPENMOLCA   SOPE           NM      O  LCA   S      OP  EN MO
    OPENMOLC                AS         O  PEN   M      OL  CA  SOPE
    OPENMO        LCASOPE  NMOL        C  ASO   P      ENMOLC     AS
    OPE     NMO      LCA  SO     P     E   NM   OL  CA SO  PE N   MO
          OPENMOLCA            SOPE   NMO        LCAS  O    P  ENMO
     OPENMOLCASOPENMOLCASOPENMOLCASOPENMOLCA
        OPENMOLCASOPENMOLCASOPENMOLCASOPE
            OPENMOLCASOPENMOLCASOPENM
               OPENMOLCASOPENMOLCA        version: 19.11
                   OPENMOLCASO
                       OPE                tag: 1162-ga18ab34

 OpenMolcas is free software; you can redistribute it and/or modify it
 under the terms of the GNU Lesser General Public License version 2.1.
 OpenMolcas is distributed in the hope that it will be useful, but it
 is provided "as is" and without any express or implied warranties.
 For more details see the full text of the license in the file
 LICENSE or in <http://www.gnu.org/licenses/>.

                 Copyright (C) The OpenMolcas Authors
           For the author list and the recommended citation,
                   consult the file CONTRIBUTORS.md

           *************************************************
           * pymolcas version py2.08                       *
           *   build bed633bbe89b7744c23cdbfc3f64969c      *
           *   (after the EMIL interpreter by V. Veryazov) *
           *************************************************

configuration info
------------------
C Compiler ID: GNU
C flags: -std=gnu99 -fopenmp
Fortran Compiler ID: GNU
Fortran flags: -fno-aggressive-loop-optimizations -cpp -fdefault-integer-8 -fopenmp
Definitions: _MOLCAS_;_I8_;_LINUX_;_MKL_;_DMRG_
Parallel: OFF (GA=OFF)


   ----------------------------------------------------------------------
  |
  |             Project: symm
  |      Submitted from: /scratch/gayverjr/symm.457024322
  |        Scratch area: /scratch/gayverjr/symm.457024322
  |     Save outputs to: /home/gayverjr/OpenCAP/molcas_tests
  |              Molcas: /home/qcsoftware/OpenMolcas/qcmaquis_build/build
  |
  | Scratch area is NOT empty
  |
  |      MOLCAS_DRIVER = /home/qcsoftware/bin/pymolcas
  | MOLCAS_NEW_WORKDIR = YES
  |      MOLCAS_NPROCS = 16
  |      MOLCAS_SOURCE = /home/qcsoftware/OpenMolcas/Molcas_src
  |   MOLCAS_STRUCTURE = 0
  |
   ----------------------------------------------------------------------

++ ---------   Input file   ---------

&GATEWAY
Coord
2
Bohr
N  0.0  0.0  1.039
N  0.0  0.0  -1.039
Basis set = 6-31G

&SEWARD

&SCF

&RASSCF
Inactive = 2   1   1   0   2   0   0   0
Ras2= 2 0 0 0 0 0 0 0
TDM
NActEl=2,0,0
CIROOT= 3 3 1

&CASPT2
MAXIter = 50
MULtistate = all

&RASSI
TRD1

-- ----------------------------------

--- Start Module: gateway at Sat Aug  8 10:06:01 2020 ---

()()()()()()()()()()()()()()()()()()()()()()()()()()()()()()()()()()()()()()()()()()()()()()()()()()

                                              &GATEWAY

                                   only a single process is used
                       available to each process: 20 GB of memory, 16 threads
                                             pid: 13579
()()()()()()()()()()()()()()()()()()()()()()()()()()()()()()()()()()()()()()()()()()()()()()()()()()

      Found SYMMETRY generators: x y z

++    Symmetry information:
      ---------------------

                    --- Group Generators ---
                    Reflection in the yz-plane  
                    Reflection in the xz-plane  
                    Reflection in the xy-plane  

                    Character Table for D2h

                             E   s(yz) s(xz) C2(z) s(xy) C2(y) C2(x)   i  
                    ag       1     1     1     1     1     1     1     1  
                    b3u      1    -1     1    -1     1    -1     1    -1  x
                    b2u      1     1    -1    -1     1     1    -1    -1  y
                    b1g      1    -1    -1     1     1    -1    -1     1  xy, Rz
                    b1u      1     1     1     1    -1    -1    -1    -1  z
                    b2g      1    -1     1    -1    -1     1    -1     1  xz, Ry
                    b3g      1     1    -1    -1    -1    -1     1     1  yz, Rx
                    au       1    -1    -1     1    -1     1     1    -1  I
--


++    Basis set information:
      ----------------------


      Basis set label: N.6-31G.........

      Electronic valence basis set:
      ------------------
      Associated Effective Charge   7.000000 au
      Associated Actual Charge      7.000000 au
      Nuclear Model: Point charge

      Shell  nPrim  nBasis  Cartesian Spherical Contaminant
         s      10       3        X                  
         p       4       2        X                  
--


++    Molecular structure info:
      -------------------------

                    ************************************************ 
                    **** Cartesian Coordinates / Bohr, Angstrom **** 
                    ************************************************ 

     Center  Label                x              y              z                     x              y              z
        1      N1               0.000000       0.000000       1.039000              0.000000       0.000000       0.549815
        2      N1               0.000000       0.000000      -1.039000              0.000000       0.000000      -0.549815
--


            Nuclear Potential Energy             23.58036574 au

--- Stop Module: gateway at Sat Aug  8 10:06:03 2020 /rc=_RC_ALL_IS_WELL_ ---
*** files: xmldump
    saved to directory /home/gayverjr/OpenCAP/molcas_tests
--- Module gateway spent 1 second ---

--- Start Module: seward at Sat Aug  8 10:06:03 2020 ---

()()()()()()()()()()()()()()()()()()()()()()()()()()()()()()()()()()()()()()()()()()()()()()()()()()

                                              &SEWARD

                                   only a single process is used
                       available to each process: 20 GB of memory, 16 threads
                                             pid: 13600
()()()()()()()()()()()()()()()()()()()()()()()()()()()()()()()()()()()()()()()()()()()()()()()()()()

               SEWARD will generate:
                  Multipole Moment integrals up to order  2
                  Kinetic Energy integrals
                  Nuclear Attraction integrals (point charge)
                  One-Electron Hamiltonian integrals
                  Velocity integrals
                  Orbital angular momentum around ( 0.0000  0.0000  0.0000 )
                  Velocity quadrupole around ( 0.0000  0.0000  0.0000 )
                  Two-Electron Repulsion integrals

                   Integrals are discarded if absolute value <: 0.10E-13
                   Integral cutoff threshold is set to       <: 0.10E-15

                    Unitary symmetry adaptation


            Nuclear Potential Energy             23.58036574 au


      Basis set specifications :
      Symmetry species         ag   b3u  b2u  b1g  b1u  b2g  b3g  au 
      Basis functions            5    2    2    0    5    2    2    0


  Input file to MOLDEN was generated!

--- Stop Module: seward at Sat Aug  8 10:06:04 2020 /rc=_RC_ALL_IS_WELL_ ---
*** files: symm.GssOrb symm.guessorb.h5 symm.guessorb.molden xmldump
    saved to directory /home/gayverjr/OpenCAP/molcas_tests
--- Module seward spent 1 second ---

*** symbolic link created: INPORB -> symm.GssOrb
--- Start Module: scf at Sat Aug  8 10:06:05 2020 ---

()()()()()()()()()()()()()()()()()()()()()()()()()()()()()()()()()()()()()()()()()()()()()()()()()()

                                                &SCF

                                   only a single process is used
                       available to each process: 20 GB of memory, 16 threads
                                             pid: 13624
()()()()()()()()()()()()()()()()()()()()()()()()()()()()()()()()()()()()()()()()()()()()()()()()()()

++    Input section:
      --------------

      Header of the integral files:
      
       Integrals generated by seward 4.2.0  , Sat Aug  8 10:06:03 2020


      Cartesian coordinates in Angstrom:
      -----------------------------------------------------
      No.  Label        X            Y            Z        
      -----------------------------------------------------
       1   N1         0.00000000   0.00000000   0.54981512
       2   N1         0.00000000   0.00000000  -0.54981512
      -----------------------------------------------------
      Nuclear repulsion energy =   23.58036574
--

++    Orbital specifications:
      -----------------------

      Symmetry species               1   2   3   4   5   6   7   8
                                    ag b3u b2u b1g b1u b2g b3g  au
      Frozen orbitals                0   0   0   0   0   0   0   0
      Occupied orbitals              3   1   1   0   2   0   0   0
      Secondary orbitals             2   1   1   0   3   2   2   0
      Deleted orbitals               0   0   0   0   0   0   0   0
      Total number of orbitals       5   2   2   0   5   2   2   0
      Number of basis functions      5   2   2   0   5   2   2   0
--

      Molecular charge                           0.000

++    Optimization specifications:
      ----------------------------

      SCF Algorithm: Conventional
      Minimized density differences are used
      Number of density matrices in core                5
      Maximum number of NDDO SCF iterations           400
      Maximum number of HF SCF iterations             400
      Threshold for SCF energy change            0.10E-08
      Threshold for density matrix               0.10E-03
      Threshold for Fock matrix                  0.15E-03
      Threshold for linear dependence            0.10E-08
      Threshold at which DIIS is turned on       0.15E+00
      Threshold at which QNR/C2DIIS is turned on 0.75E-01
      Threshold for Norm(delta) (QNR/C2DIIS)     0.20E-04
      DIIS extrapolation of the SCF procedure
      All orbitals punched on: SCFORB
--

      Input vectors read from INPORB
      Orbital file label: *Guess orbitals


++ Convergence information
                                   SCF        iterations: Energy and convergence statistics

Iter     Tot. SCF        One-elec.       Two-elec.     Energy      Max Dij or  Max Fij      DNorm      TNorm      AccCon     Time
         Energy          Energy          Energy        Change      Delta Norm                                                in Sec.
   1  -108.712835976  -192.614520806    60.321319094   0.00E+00    0.21E+00*   0.19E+00*    0.43E+01   0.39E+02   None         0.
   2  -108.860557009  -193.923601390    61.482678645  -0.15E+00*   0.52E-01*   0.40E-01*    0.13E+01   0.40E+02   EDIIS        0.
   3  -108.867312295  -193.639381617    61.191703585  -0.68E-02*   0.87E-02*   0.88E-02*    0.16E+00   0.40E+02   EDIIS        0.
   4  -108.867627920  -193.690852974    61.242859318  -0.32E-03*   0.19E-02*   0.25E-02*    0.21E-01   0.40E+02   c2DIIS       0.
   5  -108.867643592  -193.677396394    61.229387065  -0.16E-04*   0.35E-03*   0.26E-03*    0.11E-02   0.40E+02   QNRc2DIIS    0.
   6  -108.867643905  -193.682486109    61.234476468  -0.31E-06*   0.56E-04*   0.54E-04     0.12E-03   0.40E+02   QNRc2DIIS    0.
   7  -108.867643917  -193.681671264    61.233661611  -0.13E-07*   0.63E-05    0.55E-05     0.12E-04   0.40E+02   QNRc2DIIS    0.
   8  -108.867643917  -193.681659713    61.233650059  -0.10E-09    0.64E-07    0.46E-07     0.70E-04   0.40E+02   QNRc2DIIS    0.

       Convergence after  8 Macro Iterations
--

 *****************************************************************************************************************************
 *                                                                                                                           *
 *                                             SCF/KS-DFT Program, Final results                                             *
 *                                                                                                                           *
 *                                                                                                                           *
 *                                                                                                                           *
 *                                                       Final Results                                                       *
 *                                                                                                                           *
 *****************************************************************************************************************************

::    Total SCF energy                               -108.8676439174
      One-electron energy                            -193.6816597131
      Two-electron energy                              61.2336500594
      Nuclear repulsion energy                         23.5803657363
      Kinetic energy (interpolated)                   108.6870505857
      Virial theorem                                    1.0016615901
      Total spin, S(S+1)                                0.0000000000
      Total spin, S                                     0.0000000000
      Max non-diagonal density matrix element           0.0000000720
      Max non-diagonal Fock matrix element              0.0000000117


      All orbitals with orbital energies smaller than  E(LUMO)+0.5 are printed

++    Molecular orbitals:
      -------------------

      Title: SCF orbitals

      Molecular orbitals for symmetry species 1: ag 

          Orbital            1         2         3    
          Energy          -15.7185   -1.5256   -0.6294
          Occ. No.          2.0000    2.0000    2.0000

        1 N1     1s         0.9957   -0.2220   -0.0826
        2 N1     2s         0.0209    0.5094    0.1199
        3 N1     *s        -0.0039    0.2445    0.4790
        4 N1     2pz       -0.0026   -0.3425    0.6613
        5 N1     *pz        0.0017   -0.0271    0.2534

      Molecular orbitals for symmetry species 2: b3u

          Orbital            1    
          Energy           -0.6214
          Occ. No.          2.0000

        1 N1     2px        0.6264
        2 N1     *px        0.3598

      Molecular orbitals for symmetry species 3: b2u

          Orbital            1    
          Energy           -0.6214
          Occ. No.          2.0000

        1 N1     2py        0.6264
        2 N1     *py        0.3598

      Molecular orbitals for symmetry species 5: b1u

          Orbital            1         2         3    
          Energy          -15.7152   -0.7757    0.5885
          Occ. No.          2.0000    2.0000    0.0000

        1 N1     1s         0.9964   -0.2078    0.1430
        2 N1     2s         0.0235    0.4813   -0.2818
        3 N1     *s        -0.0217    0.7961   -5.7443
        4 N1     2pz       -0.0040    0.2839    0.1219
        5 N1     *pz        0.0090    0.0458    3.7577

      Molecular orbitals for symmetry species 6: b2g

          Orbital            1    
          Energy            0.1500
          Occ. No.          0.0000

        1 N1     2px        0.6330
        2 N1     *px        0.9442

      Molecular orbitals for symmetry species 7: b3g

          Orbital            1    
          Energy            0.1500
          Occ. No.          0.0000

        1 N1     2py        0.6330
        2 N1     *py        0.9442
--


++    Molecular charges:
      ------------------

      Mulliken charges per centre and basis function type
      ---------------------------------------------------

                N1    
      1s       1.9983
      2s       0.9092
      2px      0.6154
      2pz      0.9793
      2py      0.6154
      *s       0.9744
      *px      0.3846
      *pz      0.1387
      *py      0.3846
      Total    7.0000

      N-E     -0.0000

      Total electronic charge=   14.000000

      Total            charge=   -0.000000
--


++    Molecular properties:
      ---------------------

      Charge (e):
                      =   -0.0000
      Dipole Moment (Debye):
      Origin of the operator (Ang)=    0.0000    0.0000    0.0000
                   X=  0.0000E+00               Y=  0.0000E+00               Z=  0.0000E+00           Total=  0.0000E+00
      Quadrupole Moment (Debye*Ang):
      Origin of the operator (Ang)=    0.0000    0.0000    0.0000
                  XX= -1.0305E+01              XY=  0.0000E+00              XZ=  0.0000E+00              YY= -1.0305E+01
                  YZ=  0.0000E+00              ZZ= -1.2567E+01
      In traceless form (Debye*Ang)
                  XX=  1.1305E+00              XY=  0.0000E+00              XZ=  0.0000E+00              YY=  1.1305E+00
                  YZ=  0.0000E+00              ZZ= -2.2611E+00
--


  Input file to MOLDEN was generated!

 ###############################################################################
 ###############################################################################
 ###                                                                         ###
 ###                                                                         ###
 ###    WARNING: RunFile label nBas                                          ###
 ###    was used       71 times                                              ###
 ###                                                                         ###
 ###                                                                         ###
 ###############################################################################
 ###############################################################################
--- Stop Module: scf at Sat Aug  8 10:06:05 2020 /rc=_RC_ALL_IS_WELL_ ---
*** files: symm.scf.molden symm.ScfOrb symm.scf.h5 xmldump
    saved to directory /home/gayverjr/OpenCAP/molcas_tests

*** symbolic link created: INPORB -> symm.ScfOrb
--- Start Module: rasscf at Sat Aug  8 10:06:05 2020 ---

()()()()()()()()()()()()()()()()()()()()()()()()()()()()()()()()()()()()()()()()()()()()()()()()()()

                                              &RASSCF

                                   only a single process is used
                       available to each process: 20 GB of memory, 16 threads
                                             pid: 13648
()()()()()()()()()()()()()()()()()()()()()()()()()()()()()()()()()()()()()()()()()()()()()()()()()()


      Header of the ONEINT file:
      --------------------------
      
      Integrals generated by seward 4.2.0  , Sat Aug  8 10:06:03 2020


      OrdInt status: non-squared


      Cartesian coordinates in Angstrom:
      -----------------------------------------------------
      No.  Label        X            Y            Z        
      -----------------------------------------------------
       1   N1         0.00000000   0.00000000   0.54981512
       2   N1         0.00000000   0.00000000  -0.54981512
      -----------------------------------------------------
      Nuclear repulsion energy =   23.58036574

++    Wave function specifications:
      -----------------------------

      Number of closed shell electrons          12
      Number of electrons in active shells       2
      Max number of holes in RAS1 space          0
      Max nr of electrons in RAS3 space          0
      Number of inactive orbitals                6
      Number of active orbitals                  2
      Number of secondary orbitals              10
      Spin quantum number                      0.0
      State symmetry                             1
--

++    Orbital specifications:
      -----------------------

      Symmetry species                           1   2   3   4   5   6   7   8
                                                ag b3u b2u b1g b1u b2g b3g  au
      Frozen orbitals                            0   0   0   0   0   0   0   0
      Inactive orbitals                          2   1   1   0   2   0   0   0
      Active orbitals                            2   0   0   0   0   0   0   0
      RAS1 orbitals                              0   0   0   0   0   0   0   0
      RAS2 orbitals                              2   0   0   0   0   0   0   0
      RAS3 orbitals                              0   0   0   0   0   0   0   0
      Secondary orbitals                         1   1   1   0   3   2   2   0
      Deleted orbitals                           0   0   0   0   0   0   0   0
      Number of basis functions                  5   2   2   0   5   2   2   0
--

++    CI expansion specifications:
      ----------------------------

      Number of CSFs                             3
      Number of determinants                     3
      Number of root(s) required                 3
      Root chosen for geometry opt.              3
      CI roots used                              1     2     3
      weights                                0.333 0.333 0.333
      highest root included in the CI            3
      max. size of the explicit Hamiltonian      3
--

++    Optimization specifications:
      ----------------------------

      RASSCF algorithm: Conventional
      Maximum number of macro iterations       200
      Maximum number of SX iterations          100
      Threshold for RASSCF energy            0.100E-07
      Threshold for max MO rotation          0.100E+00
      Threshold for max BLB element          0.100E-03
      Level shift parameter                  0.500E+00
      Make Quasi-Newton update
--

      Orbitals from runfile: scf orbitals
      The MO-coefficients are taken from scf orbitals on runfile

      Total molecular charge    0.00

      ************************************************************************************************************************
      *                                                                                                                      *
      *                                            Wave function control section                                             *
      *                                                                                                                      *
      ************************************************************************************************************************


                                         RASSCF iterations: Energy and convergence statistics
                                         ----------------------------------------------------

      Iter CI   SX   CI       RASSCF       Energy    max ROT     max BLB   max BLB  Level Ln srch  Step   QN   Walltime
          iter iter root      energy       change     param      element    value   shift minimum  type update hh:mm:ss
 Nr of preliminary CI iterations:   1
        1   1    5    0  -107.75348331    0.00E+00   0.47E-01    1   2 3  0.10E+00*  0.00   0.00    SX    NO    0:00:00
        2   1    5    0  -107.76192764   -0.84E-02* -0.60E-01    3   5 1 -0.39E-01*  0.00   0.00    SX    NO    0:00:00
        3   1    4    0  -107.76235754   -0.43E-03*  0.60E-01    3   5 1  0.39E-01*  0.00   0.00    SX    NO    0:00:00
        4   1    4    0  -107.76254309   -0.19E-03* -0.59E-01    3   5 1 -0.38E-01*  0.00   0.00    SX    NO    0:00:00
        5   1    4    0  -107.76264967   -0.11E-03*  0.52E-01    3   5 1  0.38E-01*  0.00   0.51    SX   YES    0:00:00
        6   1    4    0  -107.76315422   -0.50E-03* -0.41E-01    3   5 1 -0.29E-01*  0.00   0.57    SX   YES    0:00:00
        7   1    4    0  -107.76340668   -0.25E-03*  0.34E-01    3   5 1  0.24E-01*  0.00   0.56    SX   YES    0:00:00
        8   1    4    0  -107.76355879   -0.15E-03* -0.29E-01    3   5 1 -0.20E-01*  0.00   0.55    SX   YES    0:00:00
        9   1    4    0  -107.76365546   -0.97E-04* -0.26E-01    3   5 1  0.18E-01*  0.00   0.54    SX   YES    0:00:00
       10   1    4    0  -107.76372292   -0.67E-04* -0.23E-01    3   5 1 -0.15E-01*  0.00   0.54    SX   YES    0:00:00
       11   1    4    0  -107.76377037   -0.47E-04* -0.21E-01    3   5 1  0.14E-01*  0.00   0.53    SX   YES    0:00:00
       12   1    4    0  -107.76380594   -0.36E-04* -0.19E-01    3   5 1 -0.13E-01*  0.00   0.53    SX   YES    0:00:00
       13   1    4    0  -107.76383237   -0.26E-04* -0.17E-01    3   5 1  0.12E-01*  0.00   0.53    SX   YES    0:00:00
       14   1    4    0  -107.76385305   -0.21E-04* -0.16E-01    3   5 1 -0.11E-01*  0.00   0.53    SX   YES    0:00:00
       15   1    4    0  -107.76386898   -0.16E-04* -0.15E-01    3   5 1  0.98E-02*  0.00   0.52    SX   YES    0:00:00
       16   1    4    0  -107.76388184   -0.13E-04* -0.14E-01    3   5 1 -0.91E-02*  0.00   0.52    SX   YES    0:00:00
       17   1    3    0  -107.76389201   -0.10E-04* -0.13E-01    3   5 1  0.86E-02*  0.00   0.52    SX   YES    0:00:00
       18   1    4    0  -107.76390043   -0.84E-05* -0.12E-01    3   5 1 -0.80E-02*  0.00   0.52    SX   YES    0:00:00
       19   1    3    0  -107.76390724   -0.68E-05* -0.12E-01    3   5 1  0.76E-02*  0.00   0.52    SX   YES    0:00:00
       20   1    4    0  -107.76391299   -0.58E-05* -0.11E-01    3   5 1 -0.72E-02*  0.00   0.52    SX   YES    0:00:00
       21   1    3    0  -107.76391773   -0.47E-05* -0.10E-01    3   5 1  0.68E-02*  0.00   0.52    SX   YES    0:00:00
       22   1    4    0  -107.76392182   -0.41E-05* -0.99E-02    3   5 1 -0.65E-02*  0.00   0.51    SX   YES    0:00:00
       23   1    3    0  -107.76392524   -0.34E-05* -0.94E-02    3   5 1  0.62E-02*  0.00   0.51    SX   YES    0:00:00
       24   1    4    0  -107.76392823   -0.30E-05* -0.90E-02    3   5 1 -0.59E-02*  0.00   0.51    SX   YES    0:00:00
       25   1    3    0  -107.76393078   -0.25E-05* -0.86E-02    3   5 1  0.56E-02*  0.00   0.51    SX   YES    0:00:00
       26   1    3    0  -107.76393304   -0.23E-05* -0.83E-02    3   5 1 -0.54E-02*  0.00   0.51    SX   YES    0:00:00
       27   1    3    0  -107.76393499   -0.19E-05* -0.79E-02    3   5 1  0.52E-02*  0.00   0.51    SX   YES    0:00:00
       28   1    3    0  -107.76393674   -0.18E-05* -0.39E-02    3   5 1 -0.50E-02*  0.00   0.51    LS   YES    0:00:00
       29   1    3    0  -107.76395682   -0.20E-04* -0.26E-03    4   5 1  0.20E-03*  0.00   1.01    QN   YES    0:00:00
       30   1    3    0  -107.76395692   -0.10E-06* -0.39E-03    4   5 1  0.17E-03*  0.00   2.50    LS   YES    0:00:00
       31   1    3    0  -107.76395703   -0.11E-06* -0.59E-03    4   5 1  0.11E-03*  0.00   2.50    LS   YES    0:00:00
       32   1    3    0  -107.76395710   -0.74E-07*  0.24E-03    3   5 1  0.14E-03*  0.00   1.18    QN   YES    0:00:00
       33   1    3    0  -107.76395713   -0.26E-07* -0.15E-04    3   5 1  0.15E-04   0.00   1.10    QN   YES    0:00:00
       34   1    2    0  -107.76395713   -0.31E-09   0.35E-05    2   3 1  0.52E-05   0.00   1.11    QN   YES    0:00:00
      Convergence after 34 iterations
       35   1    2    0  -107.76395713   -0.26E-10   0.35E-05    2   3 1  0.21E-05   0.00   1.11    QN   YES    0:00:00

      ************************************************************************************************************************
                                                      Wave function printout:
                       occupation of active orbitals, and spin coupling of open shells (u,d: Spin up or down)
      ************************************************************************************************************************

      Note: transformation to natural orbitals
      has been made, which may change the order of the CSFs.

      printout of CI-coefficients larger than  0.05 for root  1
      energy=    -108.857681
      conf/sym  11     Coeff  Weight
             1  20   0.48189 0.23222
             2  ud   0.71831 0.51597
             3  02   0.50181 0.25182

      printout of CI-coefficients larger than  0.05 for root  2
      energy=    -107.786313
      conf/sym  11     Coeff  Weight
             1  20   0.72014 0.51860
             3  02  -0.69383 0.48140

      printout of CI-coefficients larger than  0.05 for root  3
      energy=    -106.647878
      conf/sym  11     Coeff  Weight
             1  20   0.49918 0.24918
             2  ud  -0.69572 0.48403
             3  02   0.51651 0.26678

      Natural orbitals and occupation numbers for root  1
      sym 1:   0.000523   1.999477

      Natural orbitals and occupation numbers for root  2
      sym 1:   1.037197   0.962803

      Natural orbitals and occupation numbers for root  3
      sym 1:   0.000501   1.999499

      ************************************************************************************************************************
      *                                                                                                                      *
      *                                                    Final results                                                     *
      *                                                                                                                      *
      ************************************************************************************************************************


++    Wave function specifications:
      -----------------------------

      Number of closed shell electrons          12
      Number of electrons in active shells       2
      Max number of holes in RAS1 space          0
      Max nr of electrons in RAS3 space          0
      Number of inactive orbitals                6
      Number of active orbitals                  2
      Number of secondary orbitals              10
      Spin quantum number                      0.0
      State symmetry                             1
--

++    Orbital specifications:
      -----------------------

      Symmetry species                           1   2   3   4   5   6   7   8
                                                ag b3u b2u b1g b1u b2g b3g  au
      Frozen orbitals                            0   0   0   0   0   0   0   0
      Inactive orbitals                          2   1   1   0   2   0   0   0
      Active orbitals                            2   0   0   0   0   0   0   0
      RAS1 orbitals                              0   0   0   0   0   0   0   0
      RAS2 orbitals                              2   0   0   0   0   0   0   0
      RAS3 orbitals                              0   0   0   0   0   0   0   0
      Secondary orbitals                         1   1   1   0   3   2   2   0
      Deleted orbitals                           0   0   0   0   0   0   0   0
      Number of basis functions                  5   2   2   0   5   2   2   0
--

++    CI expansion specifications:
      ----------------------------

      Number of CSFs                             3
      Number of determinants                     3
      Number of root(s) required                 3
      CI roots used                              1     2     3
      weights                                0.333 0.333 0.333
      highest root included in the CI            3
      Root passed to geometry opt.               3
--

++    Final optimization conditions:
      ------------------------------

      Average CI energy                            -107.76395713
      RASSCF energy for state  3                   -106.64787763
      Super-CI energy                                -0.00000000
      RASSCF energy change                           -0.00000000
      Max change in MO coefficients              -0.265E-05
      Max non-diagonal density matrix element     0.351E-05
      Maximum BLB matrix element                  0.213E-05
      (orbital pair   2,   3 in symmetry   1)
      Norm of electronic gradient            0.192E+00
--


      Final state energy(ies):
      ------------------------

::    RASSCF root number  1 Total energy:   -108.85768088
::    RASSCF root number  2 Total energy:   -107.78631288
::    RASSCF root number  3 Total energy:   -106.64787763

++    Molecular orbitals:
      -------------------

      Pseudonatural active orbitals and approximate occupation numbers




      Molecular orbitals for symmetry species 1: ag 


      Orbital                 1         2         3         4
      Energy           -15.8463   -1.5722    0.0000    0.0000
      Occ. No.           2.0000    2.0000    1.0000    1.0000

     1 N1     1s         0.9958   -0.2240   -0.0745   -0.0370
     2 N1     2s         0.0209    0.5346   -0.3538    0.5393
     3 N1     *s        -0.0040    0.2393    0.4160    0.2218
     4 N1     2pz       -0.0018   -0.3241    0.9237    0.0324
     5 N1     *pz        0.0019   -0.0162   -0.8055    1.1586



      Molecular orbitals for symmetry species 2: b3u


      Orbital                 1
      Energy            -0.6840
      Occ. No.           2.0000

     1 N1     2px        0.6564
     2 N1     *px        0.3317



      Molecular orbitals for symmetry species 3: b2u


      Orbital                 1
      Energy            -0.6840
      Occ. No.           2.0000

     1 N1     2py        0.6564
     2 N1     *py        0.3317



      Molecular orbitals for symmetry species 5: b1u


      Orbital                 1         2
      Energy           -15.8433   -0.8068
      Occ. No.           2.0000    2.0000

     1 N1     1s         0.9965   -0.2106
     2 N1     2s         0.0226    0.5169
     3 N1     *s        -0.0199    0.7671
     4 N1     2pz       -0.0026    0.2753
     5 N1     *pz        0.0076    0.0385



      Molecular orbitals for symmetry species 6: b2g


      Orbital                 1
      Energy             0.0882
      Occ. No.           0.0000

     1 N1     2px        0.6786
     2 N1     *px        0.8711



      Molecular orbitals for symmetry species 7: b3g


      Orbital                 1
      Energy             0.0882
      Occ. No.           0.0000

     1 N1     2py        0.6786
     2 N1     *py        0.8711
--

      Von Neumann Entropy (Root  1) =  0.00349


      Mulliken population analysis for root number:  1
      -----------------------------------------------


++    Molecular charges:
      ------------------

      Mulliken charges per centre and basis function type
      ---------------------------------------------------

                N1    
      1s       1.9985
      2s       0.9750
      2px      0.6530
      2pz      0.9734
      2py      0.6530
      *s       0.9196
      *px      0.3470
      *pz      0.1335
      *py      0.3470
      Total    7.0000

      N-E     -0.0000

      Total electronic charge=   14.000000

      Total            charge=   -0.000000
--



      Expectation values of various properties for root number:  1
      -----------------------------------------------------------


++    Molecular properties:
      ---------------------

      Charge (e):
                      =   -0.0000
      Dipole Moment (Debye):
      Origin of the operator (Ang)=    0.0000    0.0000    0.0000
                   X=  0.0000E+00               Y=  0.0000E+00               Z=  0.0000E+00           Total=  0.0000E+00
      Quadrupole Moment (Debye*Ang):
      Origin of the operator (Ang)=    0.0000    0.0000    0.0000
                  XX= -9.8167E+00              XY=  0.0000E+00              XZ=  0.0000E+00              YY= -9.8167E+00
                  YZ=  0.0000E+00              ZZ= -1.2260E+01
      In traceless form (Debye*Ang)
                  XX=  1.2218E+00              XY=  0.0000E+00              XZ=  0.0000E+00              YY=  1.2218E+00
                  YZ=  0.0000E+00              ZZ= -2.4436E+00
--

      Von Neumann Entropy (Root  2) =  0.99900


      Mulliken population analysis for root number:  2
      -----------------------------------------------


++    Molecular charges:
      ------------------

      Mulliken charges per centre and basis function type
      ---------------------------------------------------

                N1    
      1s       1.9983
      2s       0.9555
      2px      0.6530
      2pz      0.7188
      2py      0.6530
      *s       0.8107
      *px      0.3470
      *pz      0.5167
      *py      0.3470
      Total    7.0000

      N-E     -0.0000

      Total electronic charge=   14.000000

      Total            charge=   -0.000000
--



      Expectation values of various properties for root number:  2
      -----------------------------------------------------------


++    Molecular properties:
      ---------------------

      Charge (e):
                      =   -0.0000
      Dipole Moment (Debye):
      Origin of the operator (Ang)=    0.0000    0.0000    0.0000
                   X=  0.0000E+00               Y=  0.0000E+00               Z=  0.0000E+00           Total=  0.0000E+00
      Quadrupole Moment (Debye*Ang):
      Origin of the operator (Ang)=    0.0000    0.0000    0.0000
                  XX= -1.1344E+01              XY=  0.0000E+00              XZ=  0.0000E+00              YY= -1.1344E+01
                  YZ=  0.0000E+00              ZZ= -1.3576E+01
      In traceless form (Debye*Ang)
                  XX=  1.1163E+00              XY=  0.0000E+00              XZ=  0.0000E+00              YY=  1.1163E+00
                  YZ=  0.0000E+00              ZZ= -2.2326E+00
--

      Von Neumann Entropy (Root  3) =  0.00336


      Mulliken population analysis for root number:  3
      -----------------------------------------------


++    Molecular charges:
      ------------------

      Mulliken charges per centre and basis function type
      ---------------------------------------------------

                N1    
      1s       1.9981
      2s       0.9475
      2px      0.6530
      2pz      0.4270
      2py      0.6530
      *s       0.6930
      *px      0.3470
      *pz      0.9344
      *py      0.3470
      Total    7.0000

      N-E     -0.0000

      Total electronic charge=   14.000000

      Total            charge=   -0.000000
--



      Expectation values of various properties for root number:  3
      -----------------------------------------------------------


++    Molecular properties:
      ---------------------

      Charge (e):
                      =   -0.0000
      Dipole Moment (Debye):
      Origin of the operator (Ang)=    0.0000    0.0000    0.0000
                   X=  0.0000E+00               Y=  0.0000E+00               Z=  0.0000E+00           Total=  0.0000E+00
      Quadrupole Moment (Debye*Ang):
      Origin of the operator (Ang)=    0.0000    0.0000    0.0000
                  XX= -1.2885E+01              XY=  0.0000E+00              XZ=  0.0000E+00              YY= -1.2885E+01
                  YZ=  0.0000E+00              ZZ= -1.5524E+01
      In traceless form (Debye*Ang)
                  XX=  1.3193E+00              XY=  0.0000E+00              XZ=  0.0000E+00              YY=  1.3193E+00
                  YZ=  0.0000E+00              ZZ= -2.6387E+00
--


  Input file to MOLDEN was generated!


  Input file to MOLDEN was generated!


  Input file to MOLDEN was generated!


  Input file to MOLDEN was generated!

      Average orbitals are written to the RASORB file
      Natural orbitals for root   1 are written to the RASORB.1 file
      Natural orbitals for root   2 are written to the RASORB.2 file
      Natural orbitals for root   3 are written to the RASORB.3 file
      Spin density orbitals for root   1 are written to the SPDORB.1 file
      Spin density orbitals for root   2 are written to the SPDORB.2 file
      Spin density orbitals for root   3 are written to the SPDORB.3 file

 ###############################################################################
 ###############################################################################
 ###                                                                         ###
 ###                                                                         ###
 ###    WARNING: RunFile label BirthCertificate                              ###
 ###    was used       48 times                                              ###
 ###                                                                         ###
 ###                                                                         ###
 ###############################################################################
 ###############################################################################
--- Stop Module: rasscf at Sat Aug  8 10:06:08 2020 /rc=_RC_ALL_IS_WELL_ ---
*** files: symm.rasscf.molden symm.rasscf.molden.1 symm.rasscf.molden.2 symm.rasscf.molden.3 symm.RasOrb symm.RasOrb.1 symm.RasOrb.2 symm.RasOrb.3 symm.rasscf.h5 symm.SpdOrb.1
           symm.SpdOrb.2 symm.SpdOrb.3 xmldump
    saved to directory /home/gayverjr/OpenCAP/molcas_tests
--- Module rasscf spent 3 seconds ---

*** symbolic link created: INPORB -> symm.RasOrb
--- Start Module: caspt2 at Sat Aug  8 10:06:08 2020 ---

()()()()()()()()()()()()()()()()()()()()()()()()()()()()()()()()()()()()()()()()()()()()()()()()()()

                                              &CASPT2

                                   only a single process is used
                       available to each process: 20 GB of memory, 16 threads
                                             pid: 13672
()()()()()()()()()()()()()()()()()()()()()()()()()()()()()()()()()()()()()()()()()()()()()()()()()()


++    Wave function specifications:
      -----------------------------

      Number of closed shell electrons           8
      Number of electrons in active shells       2
      Max number of holes in RAS1 space          0
      Max number of electrons in RAS3 space      0
      Number of inactive orbitals                4
      Number of active orbitals                  2
      Number of secondary orbitals              10
      Spin quantum number                      0.0
      State symmetry                             1
      Number of CSFs                             3
      Number of root(s) available                3
      Root passed to geometry opt.               3
      A file JOBMIX will be created
      This is a MULTI-STATE CASSCF reference
      Number of CI roots used                    3
      These are:                                 1   2   3
      Off-diagonal elements of Heff are computed
--

++    Orbital specifications:
      -----------------------

      Symmetry species                           1   2   3   4   5   6   7   8
                                                ag b3u b2u b1g b1u b2g b3g  au
      Frozen orbitals                            1   0   0   0   1   0   0   0
      Inactive orbitals                          1   1   1   0   1   0   0   0
      Active orbitals                            2   0   0   0   0   0   0   0
      Secondary orbitals                         1   1   1   0   3   2   2   0
      Deleted orbitals                           0   0   0   0   0   0   0   0
      Number of basis functions                  5   2   2   0   5   2   2   0
--

++    CASPT2 specifications:
      ----------------------

      Type of calculation                        MS-CASPT2
      Fock operator                              state-specific
      IPEA shift                                 0.25
      Real shift                                 0.00
      Imaginary shift                            0.00
      The input orbitals will be transformed to quasi-canonical
--

--------------------------------------------------------------------------------
 Estimated memory requirements:
  POLY3 :                   250070
  RHS:                      250179
  SIGMA :                   250288
  PRPCTL:                        0
 Available workspace:   2249999089

++ CASPT2 computation for group   1

********************************************************************************
 Multi-State initialization phase begins for group   1
--------------------------------------------------------------------------------
********************************************************************************
 Compute H0 matrices for state    1
--------------------------------------------------------------------------------
--------------------------------------------------------------------------------
 H0 matrices have been computed.

********************************************************************************
  CASPT2 EQUATION SOLUTION
--------------------------------------------------------------------------------

  Total nr of CASPT2 parameters:
   Before reduction:         426
   After  reduction:         347

 The contributions to the second order correlation energy in atomic units.
-----------------------------------------------------------------------------------------------------------------------------
  IT.      VJTU        VJTI        ATVX        AIVX        VJAI        BVAT        BJAT        BJAI        TOTAL       RNORM  
-----------------------------------------------------------------------------------------------------------------------------
   1    -0.000508   -0.000482   -0.001346   -0.012442   -0.003360   -0.007124   -0.055610   -0.171216   -0.252087    0.000699
   2    -0.000507   -0.000482   -0.001343   -0.012430   -0.003365   -0.007127   -0.055616   -0.171238   -0.252107    0.000023
-----------------------------------------------------------------------------------------------------------------------------

  FINAL CASPT2 RESULT:

      Reference energy:        -108.8576808839
      E2 (Non-variational):      -0.2521083747
      E2 (Variational):          -0.2521083489
      Total energy:            -109.1097892328
      Residual norm:              0.0000008178
      Reference weight:           0.90346

      Contributions to the CASPT2 correlation energy
      Active & Virtual Only:         -0.0084693106
      One Inactive Excited:          -0.0685539587
      Two Inactive Excited:          -0.1750851054


++ Denominators, etc.
--------------------------------------------------------------------------------------------------------------
 Report on small energy denominators, large coefficients, and large energy contributions.
CASE  SYMM ACTIVE-MIX  NON-ACTIVE INDICES          DENOMINATOR     RHS VALUE       COEFFICIENT     CONTRIBUTION
AIVX     1  Mu1.0001  In2.001 Se2.002               1.58001367     -0.07136318      0.04044438     -0.00288624
AIVX     1  Mu1.0001  In3.001 Se3.002               1.58001367     -0.07136318      0.04044438     -0.00288624
BVATP    1  Mu1.0001  Se5.004 Se5.004               3.64776862      0.11409673     -0.03124078     -0.00356447
BJATP    1  Mu1.0001  In2.001 Se6.001 Se5.004       2.54858094     -0.08503594      0.03328872     -0.00283074
BJATP    1  Mu1.0001  In3.001 Se7.001 Se5.004       2.54858094     -0.08503594      0.03328872     -0.00283074
BJATP    1  Mu1.0001  In5.002 Se5.004 Se1.005       3.49172546      0.13132681     -0.03750216     -0.00492504
BJATM    1  Mu1.0001  In2.001 Se6.001 Se5.004       2.54858094      0.14536061     -0.05696125     -0.00827992
BJATM    1  Mu1.0001  In2.001 Se6.002 Se5.004       3.40634563     -0.09987196      0.02928581     -0.00292483
BJATM    1  Mu1.0001  In3.001 Se7.001 Se5.004       2.54858094      0.14536061     -0.05696125     -0.00827992
BJATM    1  Mu1.0001  In3.001 Se7.002 Se5.004       3.40634563     -0.09987196      0.02928581     -0.00292483
BJAIP    1  Se6.001 In2.001 Se6.001 In2.001         1.53332570      0.14924935     -0.09733702     -0.01452749
BJAIP    1  Se6.001 In2.001 Se6.002 In2.001         2.39109038     -0.11603315      0.04852730     -0.00563078
BJAIP    1  Se7.001 In3.001 Se7.001 In3.001         1.53332570      0.14924935     -0.09733702     -0.01452749
BJAIP    1  Se7.001 In3.001 Se7.002 In3.001         2.39109038     -0.11603315      0.04852730     -0.00563078
BJAIP    1  Se6.001 In5.002 Se6.001 In5.002         1.84834384      0.07177081     -0.03882979     -0.00278685
BJAIP    1  Se7.001 In5.002 Se7.001 In5.002         1.84834384      0.07177081     -0.03882979     -0.00278685
BJAIP    2  Se5.003 In1.002 Se6.001 In2.001         2.84720225     -0.07211061      0.02530459     -0.00182473
BJAIP    3  Se5.003 In1.002 Se7.001 In3.001         2.84720225     -0.07211061      0.02530459     -0.00182473
BJAIP    4  Se6.001 In2.001 Se7.001 In3.001         1.53332570      0.13467716     -0.08783337     -0.01182915
BJAIP    4  Se6.002 In2.001 Se7.001 In3.001         2.39109038     -0.07502540      0.03137707     -0.00235408
BJAIP    4  Se6.001 In2.001 Se7.002 In3.001         2.39109038     -0.07502540      0.03137707     -0.00235408
BJAIP    6  Se1.005 In2.001 Se6.001 In5.002         2.47647022     -0.06315839      0.02552963     -0.00161241
BJAIP    7  Se1.005 In3.001 Se7.001 In5.002         2.47647022     -0.06315839      0.02552963     -0.00161241
BJAIM    2  Se5.005 In1.002 Se6.001 In2.001         3.84675669     -0.09671281      0.02506880     -0.00242447
BJAIM    3  Se5.005 In1.002 Se7.001 In3.001         3.84675669     -0.09671281      0.02506880     -0.00242447
BJAIM    4  Se2.002 In2.001 Se3.002 In3.001         2.91151938      0.08188659     -0.02641019     -0.00216264
BJAIM    4  Se6.001 In2.001 Se7.001 In3.001         1.53332570      0.18278813     -0.11921024     -0.02179022
BJAIM    4  Se6.002 In2.001 Se7.001 In3.001         2.39109038     -0.10562141      0.04417291     -0.00466560
BJAIM    4  Se6.001 In2.001 Se7.002 In3.001         2.39109038     -0.10562141      0.04417291     -0.00466560
BJAIM    4  Se6.002 In2.001 Se7.002 In3.001         3.24885507      0.08677351     -0.02670895     -0.00231763
BJAIM    6  Se1.005 In2.001 Se6.001 In5.002         2.47647022      0.09503310     -0.03832088     -0.00364175
BJAIM    7  Se1.005 In3.001 Se7.001 In5.002         2.47647022      0.09503310     -0.03832088     -0.00364175
--

   (Skipping property calculation,
    use PROP keyword to activate)
--


++ CASPT2 computation for group   2

********************************************************************************
 Multi-State initialization phase begins for group   2
--------------------------------------------------------------------------------
********************************************************************************
 Compute H0 matrices for state    2
--------------------------------------------------------------------------------
--------------------------------------------------------------------------------
 H0 matrices have been computed.

********************************************************************************
  CASPT2 EQUATION SOLUTION
--------------------------------------------------------------------------------

  Total nr of CASPT2 parameters:
   Before reduction:         426
   After  reduction:         347

 The contributions to the second order correlation energy in atomic units.
-----------------------------------------------------------------------------------------------------------------------------
  IT.      VJTU        VJTI        ATVX        AIVX        VJAI        BVAT        BJAT        BJAI        TOTAL       RNORM  
-----------------------------------------------------------------------------------------------------------------------------
   1    -0.000915   -0.001095   -0.004817   -0.039029   -0.071095   -0.006020   -0.053746   -0.176152   -0.352868    0.000120
   2    -0.000915   -0.001095   -0.004822   -0.039043   -0.071099   -0.006020   -0.053748   -0.176152   -0.352895    0.000004
-----------------------------------------------------------------------------------------------------------------------------

  FINAL CASPT2 RESULT:

      Reference energy:        -107.7863128808
      E2 (Non-variational):      -0.3528948988
      E2 (Variational):          -0.3528948928
      Total energy:            -108.1392077736
      Residual norm:              0.0000000420
      Reference weight:           0.81768

      Contributions to the CASPT2 correlation energy
      Active & Virtual Only:         -0.0108419901
      One Inactive Excited:          -0.0937063724
      Two Inactive Excited:          -0.2483465363


++ Denominators, etc.
--------------------------------------------------------------------------------------------------------------
 Report on small energy denominators, large coefficients, and large energy contributions.
CASE  SYMM ACTIVE-MIX  NON-ACTIVE INDICES          DENOMINATOR     RHS VALUE       COEFFICIENT     CONTRIBUTION
ATVX     1  Mu1.0001  Se1.005                       0.37016562     -0.02807799      0.07579792     -0.00212825
ATVX     1  Mu1.0002  Se1.005                       1.47374536     -0.06294864      0.04279838     -0.00269410
AIVX     1  Mu1.0001  In2.001 Se2.002               0.50409986     -0.06227490      0.12371074     -0.00770407
AIVX     1  Mu1.0001  In3.001 Se3.002               0.50409986     -0.06227490      0.12371074     -0.00770407
AIVX     1  Mu1.0001  In5.002 Se5.003               0.35611683      0.01682168     -0.04592263     -0.00077250
AIVX     1  Mu1.0001  In5.002 Se5.004               0.91657314     -0.02944200      0.03223504     -0.00094906
AIVX     1  Mu1.0003  In5.002 Se5.004               2.06165837     -0.15966095      0.07710420     -0.01231053
AIVX     1  Mu1.0001  In5.002 Se5.005               1.34867212     -0.06976825      0.05172311     -0.00360863
VJAIP    1  Mu1.0001  Se1.005 In5.002 In5.002       2.12564427      0.08025811     -0.03750394     -0.00301000
VJAIP    1  Mu1.0001  Se6.001 In5.002 In2.001       1.20706149     -0.12676250      0.10472699     -0.01327546
VJAIP    1  Mu1.0001  Se7.001 In5.002 In3.001       1.20706149     -0.12676250      0.10472699     -0.01327546
VJAIM    1  Mu1.0001  Se5.003 In5.002 In1.002       2.53205391     -0.06906945      0.02722014     -0.00188008
VJAIM    1  Mu1.0001  Se6.001 In5.002 In2.001       1.20706149      0.13080062     -0.10793455     -0.01411791
VJAIM    1  Mu1.0001  Se6.002 In5.002 In2.001       2.07134469     -0.06277345      0.03019759     -0.00189561
VJAIM    1  Mu1.0001  Se7.001 In5.002 In3.001       1.20706149      0.13080062     -0.10793455     -0.01411791
VJAIM    1  Mu1.0001  Se7.002 In5.002 In3.001       2.07134469     -0.06277345      0.03019759     -0.00189561
BVATP    1  Mu1.0001  Se5.003 Se5.003               1.02781966     -0.05136809      0.04997491     -0.00256712
BVATP    1  Mu1.0001  Se5.004 Se5.004               2.14873226      0.06398437     -0.02978063     -0.00190549
BVATP    1  Mu1.0001  Se6.001 Se6.001               0.15005015      0.00224290     -0.01483193     -0.00003327
BVATP    1  Mu1.0001  Se7.001 Se7.001               0.15005015      0.00224290     -0.01483193     -0.00003327
BJATP    1  Mu1.0001  In2.001 Se6.001 Se5.003       0.81702430     -0.03620667      0.04428163     -0.00160329
BJATP    1  Mu1.0002  In2.001 Se6.001 Se5.004       2.48106926      0.06582891     -0.02652721     -0.00174626
BJATP    1  Mu1.0001  In3.001 Se7.001 Se5.003       0.81702430     -0.03620667      0.04428163     -0.00160329
BJATP    1  Mu1.0002  In3.001 Se7.001 Se5.004       2.48106926      0.06582891     -0.02652721     -0.00174626
BJATP    1  Mu1.0002  In5.002 Se5.004 Se1.005       3.39965204     -0.09293409      0.02699193     -0.00250847
BJATM    1  Mu1.0001  In2.001 Se6.001 Se5.003       0.81702430      0.05340528     -0.06533974     -0.00348949
BJATM    1  Mu1.0001  In2.001 Se6.001 Se5.004       1.37748060     -0.04881552      0.03545208     -0.00173061
BJATM    1  Mu1.0002  In2.001 Se6.001 Se5.004       2.48106926     -0.11126326      0.04483970     -0.00498901
BJATM    1  Mu1.0001  In2.001 Se6.001 Se5.005       1.80957958     -0.04880343      0.02698378     -0.00131690
BJATM    1  Mu1.0001  In3.001 Se7.001 Se5.003       0.81702430      0.05340528     -0.06533974     -0.00348949
BJATM    1  Mu1.0001  In3.001 Se7.001 Se5.004       1.37748060     -0.04881552      0.03545208     -0.00173061
BJATM    1  Mu1.0002  In3.001 Se7.001 Se5.004       2.48106926     -0.11126326      0.04483970     -0.00498901
BJATM    1  Mu1.0001  In3.001 Se7.001 Se5.005       1.80957958     -0.04880343      0.02698378     -0.00131690
BJAIP    1  Se6.001 In2.001 Se6.001 In2.001         1.54235437      0.15912414     -0.10316963     -0.01641678
BJAIP    1  Se6.001 In2.001 Se6.002 In2.001         2.40663757     -0.10865536      0.04514820     -0.00490559
BJAIP    1  Se7.001 In3.001 Se7.001 In3.001         1.54235437      0.15912414     -0.10316963     -0.01641678
BJAIP    1  Se7.001 In3.001 Se7.002 In3.001         2.40663757     -0.10865536      0.04514820     -0.00490559
BJAIP    1  Se6.001 In5.002 Se6.001 In5.002         1.79037709      0.07430055     -0.04149994     -0.00308347
BJAIP    1  Se7.001 In5.002 Se7.001 In5.002         1.79037709      0.07430055     -0.04149994     -0.00308347
BJAIP    2  Se5.003 In1.002 Se6.001 In2.001         2.86734679     -0.07610878      0.02652650     -0.00201890
BJAIP    3  Se5.003 In1.002 Se7.001 In3.001         2.86734679     -0.07610878      0.02652650     -0.00201890
BJAIP    4  Se6.001 In2.001 Se7.001 In3.001         1.54235437      0.14370627     -0.09317331     -0.01338959
BJAIP    4  Se6.002 In2.001 Se7.001 In3.001         2.40663757     -0.07024699      0.02918885     -0.00205043
BJAIP    4  Se6.001 In2.001 Se7.002 In3.001         2.40663757     -0.07024699      0.02918885     -0.00205043
BJAIP    6  Se1.005 In2.001 Se6.001 In5.002         2.46093715     -0.06728549      0.02680104     -0.00180332
BJAIP    7  Se1.005 In3.001 Se7.001 In5.002         2.46093715     -0.06728549      0.02680104     -0.00180332
BJAIM    4  Se2.002 In2.001 Se3.002 In3.001         2.96411265      0.08188659     -0.02761927     -0.00226165
BJAIM    4  Se6.001 In2.001 Se7.001 In3.001         1.54235437      0.19549749     -0.12675264     -0.02477982
BJAIM    4  Se6.002 In2.001 Se7.001 In3.001         2.40663757     -0.09886389      0.04107968     -0.00406130
BJAIM    4  Se6.001 In2.001 Se7.002 In3.001         2.40663757     -0.09886389      0.04107968     -0.00406130
BJAIM    6  Se1.005 In2.001 Se6.001 In5.002         2.46093715      0.09877684     -0.03952109     -0.00390377
BJAIM    7  Se1.005 In3.001 Se7.001 In5.002         2.46093715      0.09877684     -0.03952109     -0.00390377
--

   (Skipping property calculation,
    use PROP keyword to activate)
--


++ CASPT2 computation for group   3

********************************************************************************
 Multi-State initialization phase begins for group   3
--------------------------------------------------------------------------------
********************************************************************************
 Compute H0 matrices for state    3
--------------------------------------------------------------------------------
--------------------------------------------------------------------------------
 H0 matrices have been computed.

********************************************************************************
  CASPT2 EQUATION SOLUTION
--------------------------------------------------------------------------------

  Total nr of CASPT2 parameters:
   Before reduction:         426
   After  reduction:         347

 The contributions to the second order correlation energy in atomic units.
-----------------------------------------------------------------------------------------------------------------------------
  IT.      VJTU        VJTI        ATVX        AIVX        VJAI        BVAT        BJAT        BJAI        TOTAL       RNORM  
-----------------------------------------------------------------------------------------------------------------------------
   1    -0.004271   -0.044860    0.001464   -0.057153   -0.137920   -0.039662   -0.047604   -0.180621   -0.510627    0.001918
   2    -0.004350   -0.044867    0.001377   -0.057179   -0.137951   -0.039727   -0.047610   -0.180654   -0.510960    0.000606
   3    -0.004384   -0.044868    0.001339   -0.057189   -0.137965   -0.039758   -0.047613   -0.180666   -0.511106    0.000613
   4    -0.004360   -0.044866    0.001372   -0.057179   -0.137954   -0.039735   -0.047611   -0.180655   -0.510989    0.000021
   5    -0.004360   -0.044866    0.001372   -0.057180   -0.137954   -0.039735   -0.047611   -0.180655   -0.510990    0.000002
-----------------------------------------------------------------------------------------------------------------------------

  FINAL CASPT2 RESULT:

      Reference energy:        -106.6478776271
      E2 (Non-variational):      -0.5109895607
      E2 (Variational):          -0.5109895604
      Total energy:            -107.1588671874
      Residual norm:              0.0000001383
      Reference weight:           0.63502

      Contributions to the CASPT2 correlation energy
      Active & Virtual Only:         -0.0383628948
      One Inactive Excited:          -0.1091507069
      Two Inactive Excited:          -0.3634759589


++ Denominators, etc.
--------------------------------------------------------------------------------------------------------------
 Report on small energy denominators, large coefficients, and large energy contributions.
CASE  SYMM ACTIVE-MIX  NON-ACTIVE INDICES          DENOMINATOR     RHS VALUE       COEFFICIENT     CONTRIBUTION
VJTU     1  Mu1.0001  In1.002                       0.53712623     -0.04761784      0.08925725     -0.00425024
VJTIP    1  Mu1.0001  In2.001 In2.001               0.85070351      0.02774704     -0.03261605     -0.00090500
VJTIP    1  Mu1.0001  In3.001 In3.001               0.85070351      0.02774704     -0.03261605     -0.00090500
VJTIP    1  Mu1.0001  In5.002 In5.002               1.02439365      0.20630203     -0.20129822     -0.04152823
ATVX     1  Mu1.0001  Se1.005                      -0.34261503     -0.02743785     -0.07586101      0.00208146
ATVX     1  Mu1.0002  Se1.005                       0.50066122      0.01842527     -0.03852554     -0.00070984
AIVX     1  Mu1.0001  In2.001 Se2.002               0.01390733      0.00130268     -0.09485154     -0.00012356
AIVX     1  Mu1.0002  In2.001 Se2.002               0.76754630      0.05602341     -0.07268470     -0.00407204
AIVX     1  Mu1.0003  In2.001 Se2.002               0.90086274     -0.02536343      0.02798491     -0.00070979
AIVX     1  Mu1.0004  In2.001 Se2.002               1.63796725      0.07459089     -0.04196520     -0.00313022
AIVX     1  Mu1.0001  In3.001 Se3.002               0.01390733      0.00130268     -0.09485154     -0.00012356
AIVX     1  Mu1.0002  In3.001 Se3.002               0.76754630      0.05602341     -0.07268470     -0.00407204
AIVX     1  Mu1.0003  In3.001 Se3.002               0.90086274     -0.02536343      0.02798491     -0.00070979
AIVX     1  Mu1.0004  In3.001 Se3.002               1.63796725      0.07459089     -0.04196520     -0.00313022
AIVX     1  Mu1.0001  In5.002 Se5.003              -0.17202932      0.00032108      0.00175464      0.00000056
AIVX     1  Mu1.0002  In5.002 Se5.003               0.58160966     -0.07882837      0.13673521     -0.01077861
AIVX     1  Mu1.0003  In5.002 Se5.003               0.71492610     -0.10544329      0.14779932     -0.01558445
AIVX     1  Mu1.0002  In5.002 Se5.004               1.10168265      0.06892871     -0.06214094     -0.00428329
AIVX     1  Mu1.0003  In5.002 Se5.004               1.23499909      0.05096575     -0.04119281     -0.00209942
AIVX     1  Mu1.0002  In5.002 Se5.005               1.56480247      0.08696156     -0.05521920     -0.00480195
VJAIP    1  Mu1.0002  Se1.005 In5.002 In5.002       2.14416525      0.11386983     -0.05283584     -0.00601641
VJAIP    1  Mu1.0002  Se6.001 In5.002 In2.001       1.24187710     -0.18383006      0.14798184     -0.02720351
VJAIP    1  Mu1.0002  Se7.001 In5.002 In3.001       1.24187710     -0.18383006      0.14798184     -0.02720351
VJAIM    1  Mu1.0002  Se5.003 In5.002 In1.002       2.59780068     -0.10100981      0.04013445     -0.00405397
VJAIM    1  Mu1.0002  Se5.005 In5.002 In1.002       3.58099349     -0.10942845      0.03052984     -0.00334083
VJAIM    1  Mu1.0002  Se6.001 In5.002 In2.001       1.24187710      0.18937028     -0.15242386     -0.02886455
VJAIM    1  Mu1.0002  Se6.002 In5.002 In2.001       2.12913346     -0.07611636      0.03573661     -0.00272014
VJAIM    1  Mu1.0002  Se7.001 In5.002 In3.001       1.24187710      0.18937028     -0.15242386     -0.02886455
VJAIM    1  Mu1.0002  Se7.002 In5.002 In3.001       2.12913346     -0.07611636      0.03573661     -0.00272014
BVATP    1  Mu1.0001  Se1.005 Se1.005               0.86560627      0.03576763     -0.04027796     -0.00144065
BVATP    1  Mu1.0001  Se2.002 Se2.002               0.71774464      0.02634428     -0.03669315     -0.00096665
BVATP    1  Mu1.0001  Se3.002 Se3.002               0.71774464      0.02634428     -0.03669315     -0.00096665
BVATP    1  Mu1.0001  Se5.003 Se5.003               0.17218121      0.07545111     -0.43945990     -0.03315774
BVATP    1  Mu1.0001  Se5.004 Se5.003               0.69225421     -0.02368867      0.03440771     -0.00081507
BVATP    1  Mu1.0001  Se5.004 Se5.004               1.21232720      0.03067720     -0.02507153     -0.00076912
BVATP    1  Mu1.0001  Se6.002 Se6.001               0.12197647      0.00378435     -0.03132501     -0.00011854
BVATP    1  Mu1.0001  Se7.002 Se7.001               0.12197647      0.00378435     -0.03132501     -0.00011854
BJATP    1  Mu1.0001  In2.001 Se6.001 Se5.003       0.25368703      0.00010981     -0.00044414     -0.00000005
BJATP    1  Mu1.0002  In2.001 Se6.001 Se5.003       0.81577155     -0.05015558      0.06212665     -0.00311600
BJATP    1  Mu1.0002  In2.001 Se6.001 Se5.004       1.33584455      0.04182566     -0.03101736     -0.00129732
BJATP    1  Mu1.0001  In3.001 Se7.001 Se5.003       0.25368703      0.00010981     -0.00044414     -0.00000005
BJATP    1  Mu1.0002  In3.001 Se7.001 Se5.003       0.81577155     -0.05015558      0.06212665     -0.00311600
BJATP    1  Mu1.0002  In3.001 Se7.001 Se5.004       1.33584455      0.04182566     -0.03101736     -0.00129732
BJATM    1  Mu1.0001  In2.001 Se6.001 Se5.003       0.25368703     -0.00070557      0.00279011     -0.00000197
BJATM    1  Mu1.0002  In2.001 Se6.001 Se5.003       0.81577155      0.07602146     -0.09369559     -0.00712288
BJATM    1  Mu1.0002  In2.001 Se6.001 Se5.004       1.33584455     -0.07015584      0.05222855     -0.00366414
BJATM    1  Mu1.0002  In2.001 Se6.001 Se5.005       1.79896437     -0.06576569      0.03631076     -0.00238800
BJATM    1  Mu1.0001  In3.001 Se7.001 Se5.003       0.25368703     -0.00070557      0.00279011     -0.00000197
BJATM    1  Mu1.0002  In3.001 Se7.001 Se5.003       0.81577155      0.07602146     -0.09369559     -0.00712288
BJATM    1  Mu1.0002  In3.001 Se7.001 Se5.004       1.33584455     -0.07015584      0.05222855     -0.00366414
BJATM    1  Mu1.0002  In3.001 Se7.001 Se5.005       1.79896437     -0.06576569      0.03631076     -0.00238800
BJATM    1  Mu1.0002  In5.002 Se6.001 Se2.002       1.17539833     -0.03241247      0.02754769     -0.00089289
BJATM    1  Mu1.0002  In5.002 Se7.001 Se3.002       1.17539833     -0.03241247      0.02754769     -0.00089289
BJAIP    1  Se6.001 In2.001 Se6.001 In2.001         1.54216254      0.16922848     -0.10973453     -0.01857021
BJAIP    1  Se6.001 In2.001 Se6.002 In2.001         2.42941889     -0.09851899      0.04055249     -0.00399519
BJAIP    1  Se7.001 In3.001 Se7.001 In3.001         1.54216254      0.16922848     -0.10973453     -0.01857021
BJAIP    1  Se7.001 In3.001 Se7.002 In3.001         2.42941889     -0.09851899      0.04055249     -0.00399519
BJAIP    1  Se6.001 In5.002 Se6.001 In5.002         1.71585267      0.07661711     -0.04465250     -0.00342115
BJAIP    1  Se7.001 In5.002 Se7.001 In5.002         1.71585267      0.07661711     -0.04465250     -0.00342115
BJAIP    2  Se5.003 In1.002 Se6.001 In2.001         2.89808611     -0.08151741      0.02852304     -0.00232512
BJAIP    3  Se5.003 In1.002 Se7.001 In3.001         2.89808611     -0.08151741      0.02852304     -0.00232512
BJAIP    4  Se6.001 In2.001 Se7.001 In3.001         1.54216254      0.15294408     -0.09917507     -0.01516824
BJAIP    4  Se6.002 In2.001 Se7.001 In3.001         2.42941889     -0.06368420      0.02621376     -0.00166940
BJAIP    4  Se6.001 In2.001 Se7.002 In3.001         2.42941889     -0.06368420      0.02621376     -0.00166940
BJAIP    6  Se1.005 In2.001 Se6.001 In5.002         2.44445068     -0.07156028      0.02916083     -0.00208676
BJAIP    7  Se1.005 In3.001 Se7.001 In5.002         2.44445068     -0.07156028      0.02916083     -0.00208676
BJAIM    4  Se2.002 In2.001 Se3.002 In3.001         3.02518706      0.08188659     -0.02534559     -0.00207546
BJAIM    4  Se6.001 In2.001 Se7.001 In3.001         1.54216254      0.20849607     -0.13519721     -0.02818809
BJAIM    4  Se6.002 In2.001 Se7.001 In3.001         2.42941889     -0.08959155      0.03687777     -0.00330394
BJAIM    4  Se6.001 In2.001 Se7.002 In3.001         2.42941889     -0.08959155      0.03687777     -0.00330394
BJAIM    6  Se1.005 In2.001 Se6.001 In5.002         2.44445068      0.10248446     -0.04180809     -0.00428468
BJAIM    7  Se1.005 In3.001 Se7.001 In5.002         2.44445068      0.10248446     -0.04180809     -0.00428468
--

   (Skipping property calculation,
    use PROP keyword to activate)
--


  Total CASPT2 energies:
::    CASPT2 Root  1     Total energy:   -109.10978923
::    CASPT2 Root  2     Total energy:   -108.13920777
::    CASPT2 Root  3     Total energy:   -107.15886719


++ Multi-State CASPT2 section:
********************************************************************************
  MULTI-STATE CASPT2 SECTION
--------------------------------------------------------------------------------

  Output diagonal energies have been shifted. Add   -109.00000000000000     

  Effective Hamiltonian matrix (Symmetric):

                1               2               3
   1        -0.10978923
   2        -0.03239743      0.86079223
   3        -0.01953425     -0.01707426      1.84113281

       Total MS-CASPT2 energies:
::    MS-CASPT2 Root  1     Total energy:   -109.11107626
::    MS-CASPT2 Root  2     Total energy:   -108.13840249
::    MS-CASPT2 Root  3     Total energy:   -107.15838544

       Eigenvectors:
            0.99938586     -0.03366493     -0.00972480
            0.03349556      0.99929285     -0.01708353
            0.01029304      0.01674730      0.99980677

--

  THE ORIGINAL CI ARRAYS ARE NOW MIXED AS LINEAR
  COMBINATIONS, GIVEN BY THE EIGENVECTORS.
  A NEW JOBIPH FILE NAMED 'JOBMIX' IS PREPARED.
********************************************************************************

++ Mixed CI coefficients:
  The CI coefficients for the MIXED state nr.   1
--------------------------------------------------------------------------------
 CI COEFFICIENTS LARGER THAN  0.50D-01
  Occupation of active orbitals, and spin coupling
  of open shells. (u,d: Spin up or down).
  SGUGA info is (Midvert:IsyUp:UpperWalk/LowerWalk)
        Conf  SGUGA info        Occupation    Coefficient         Weight
           1  ( 1:1:   1/   1)   20              0.510854       0.260972
           2  ( 2:1:   1/   1)   ud              0.710758       0.505177
           3  ( 3:1:   1/   1)   02              0.483581       0.233851

  The CI coefficients for the MIXED state nr.   2
--------------------------------------------------------------------------------
 CI COEFFICIENTS LARGER THAN  0.50D-01
  Occupation of active orbitals, and spin coupling
  of open shells. (u,d: Spin up or down).
  SGUGA info is (Midvert:IsyUp:UpperWalk/LowerWalk)
        Conf  SGUGA info        Occupation    Coefficient         Weight
           1  ( 1:1:   1/   1)   20              0.711765       0.506609
           3  ( 3:1:   1/   1)   02             -0.701583       0.492218

  The CI coefficients for the MIXED state nr.   3
--------------------------------------------------------------------------------
 CI COEFFICIENTS LARGER THAN  0.50D-01
  Occupation of active orbitals, and spin coupling
  of open shells. (u,d: Spin up or down).
  SGUGA info is (Midvert:IsyUp:UpperWalk/LowerWalk)
        Conf  SGUGA info        Occupation    Coefficient         Weight
           1  ( 1:1:   1/   1)   20              0.482098       0.232419
           2  ( 2:1:   1/   1)   ud             -0.702603       0.493650
           3  ( 3:1:   1/   1)   02              0.523384       0.273931

--

--- Stop Module: caspt2 at Sat Aug  8 10:06:09 2020 /rc=_RC_ALL_IS_WELL_ ---
*** files: xmldump
    saved to directory /home/gayverjr/OpenCAP/molcas_tests

*** symbolic link created: INPORB -> symm.RasOrb
--- Start Module: rassi at Sat Aug  8 10:06:09 2020 ---

()()()()()()()()()()()()()()()()()()()()()()()()()()()()()()()()()()()()()()()()()()()()()()()()()()

                                               &RASSI

                                   only a single process is used
                       available to each process: 20 GB of memory, 16 threads
                                             pid: 13696
()()()()()()()()()()()()()()()()()()()()()()()()()()()()()()()()()()()()()()()()()()()()()()()()()()


      ********************************************************************************
      *                                                                              *
      *                             General data section                             *
      *                                                                              *
      ********************************************************************************

   Specific data for JOBIPH file JOBIPH                                                                                                                          
   -------------------------------------

   Header from SEWARD:
                                                                               
        Integrals generated by seward 4.2.0  , Sat Aug  8 10:06:03 2020        

   CASSCF title (first line only):
       (No title given)                                                        

   STATE IRREP:                            1
   SPIN MULTIPLICITY:                      1
   ACTIVE ELECTRONS:                       2
   MAX RAS1 HOLES:                         0
   MAX RAS3 ELECTRONS:                     0
   NR OF CONFIG:                           3

  Info: creating TDMFILE
        estimated file size                     4 kB
        TDMs in AO format


   The following data are common to all the states:
   ------------------------------------------------
   (note: frozen counts as inactive, deleted as secondary)

      Nr of irreps: 8

                 Total     No./Irrep 
      Irrep                  1   2   3   4   5   6   7   8
                            ag b3u b2u b1g b1u b2g b3g  au

      INACTIVE       6       2   1   1   0   2   0   0   0
      ACTIVE         2       2   0   0   0   0   0   0   0
      SECONDARY     10       1   1   1   0   3   2   2   0
      BASIS         18       5   2   2   0   5   2   2   0

      RAS1           0       0   0   0   0   0   0   0   0
      RAS2           2       2   0   0   0   0   0   0   0
      RAS3           0       0   0   0   0   0   0   0   0

        MATRIX ELEMENTS WILL BE COMPUTED FOR THE FOLLOWING ONE-ELECTRON OPERATORS, UNLESS ZERO BY SYMMETRY.
   (Herm=Hermitian, Anti=Antihermitian, Sing=Singlet operator, Trip=Triplet operator)
     MLTPL  0   1 (HERMSING)     MLTPL  1   1 (HERMSING)     MLTPL  1   2 (HERMSING)
     MLTPL  1   3 (HERMSING)     MLTPL  2   1 (HERMSING)     MLTPL  2   2 (HERMSING)
     MLTPL  2   3 (HERMSING)     MLTPL  2   4 (HERMSING)     MLTPL  2   5 (HERMSING)
     MLTPL  2   6 (HERMSING)     VELOCITY   1 (ANTISING)     VELOCITY   2 (ANTISING)
     VELOCITY   3 (ANTISING)     ANGMOM     1 (ANTISING)     ANGMOM     2 (ANTISING)
     ANGMOM     3 (ANTISING)     MLTPV  2   1 (ANTISING)     MLTPV  2   2 (ANTISING)
     MLTPV  2   3 (ANTISING)     MLTPV  2   4 (ANTISING)     MLTPV  2   5 (ANTISING)
     MLTPV  2   6 (ANTISING)

       EIGENSTATES OF A SPIN-FREE HAMILTONIAN WILL BE COMPUTED BASED ON:

  A Hamiltonian matrix computed by RASSI.
  SO coupling elements will be added.
       EIGENSTATES OF SPIN-ORBIT HAMILTONIAN WILL BE COMPUTED
        MATRIX ELEMENTS OVER SPIN EIGENSTATES FOR:
     MLTPL  0   1 (HERMSING)     MLTPL  1   1 (HERMSING)     MLTPL  1   2 (HERMSING)
     MLTPL  1   3 (HERMSING)     MLTPL  2   1 (HERMSING)     MLTPL  2   2 (HERMSING)
     MLTPL  2   3 (HERMSING)     MLTPL  2   4 (HERMSING)     MLTPL  2   5 (HERMSING)
     MLTPL  2   6 (HERMSING)     VELOCITY   1 (ANTISING)     VELOCITY   2 (ANTISING)
     VELOCITY   3 (ANTISING)     ANGMOM     1 (ANTISING)     ANGMOM     2 (ANTISING)
     ANGMOM     3 (ANTISING)     MLTPV  2   1 (ANTISING)     MLTPV  2   2 (ANTISING)
     MLTPV  2   3 (ANTISING)     MLTPV  2   4 (ANTISING)     MLTPV  2   5 (ANTISING)
     MLTPV  2   6 (ANTISING)

  Nr of states:                    3

   State:        1   2   3
  JobIph:        1   1   1
 Root nr:        1   2   3

  HAMILTONIAN MATRIX FOR THE ORIGINAL STATES:

  Diagonal, with energies
   -108.85768088   -107.78631288   -106.64787763

      OVERLAP MATRIX FOR THE ORIGINAL STATES:

  Diagonal, with elements
      1.00000000      1.00000000      1.00000000

::    RASSI State    1     Total energy:   -108.85768088
::    RASSI State    2     Total energy:   -107.78631288
::    RASSI State    3     Total energy:   -106.64787763



      ****************************************************************************************************
      *                                                                                                  *
      *                                         Spin-free section                                        *
      *                                                                                                  *
      *                 Note: index according to input order, order according to energy.                 *
      *                                                                                                  *
      ****************************************************************************************************



  SPIN-FREE ENERGIES:
  (Shifted by EMIN (a.u.) =       -108.8576808839)

 SF State       Relative EMIN(au)   Rel lowest level(eV)    D:o, cm**(-1)      L_eff

     1             0.0000000000        0.0000000000              0.0000         0.0
     2             1.0713680031       29.1534085449         235138.0975         0.0
     3             2.2098032569       60.1318099503         484995.7552         0.0
 Electric-dipole - electric-octupole not included
 Electric-dipole - magnetic-quadrupole not included

++ Total transition strengths for the second-order expansion of the wave vector (spin-free states):
   ------------------------------------------------------------------------------------------------
     for osc. strength at least  1.00000000E-05

      From   To        Osc. strength
     -------------------------------
         1    2       1.78429596E-05
         2    3       2.27940502E-05
     -------------------------------
--


      ****************************************************************************************************
      *                                                                                                  *
      *                                    Special properties section                                    *
      *                                                                                                  *
      ****************************************************************************************************


++ I/O STATISTICS
 
  I. General I/O information
  - - - - - - - - - - - - - - - - - - - - - - - - - - - - - - - - - - - - - - - - - - -
  Unit  Name          Flsize      Write/Read            MBytes           Write/Read
                      (MBytes)       Calls              In/Out           Time, sec.
  - - - - - - - - - - - - - - - - - - - - - - - - - - - - - - - - - - - - - - - - - - -
   1  SCRATCH           0.00 .       3/       6 .      0.0/      0.0 .       0/       0
   2  ANNI              0.00 .       0/       0 .      0.0/      0.0 .       0/       0
   3  RUNFILE          13.06 .     182/    1188 .      1.3/      8.6 .       0/       0
   4  ONEINT            1.37 .       0/     270 .      0.0/    293.3 .       0/       0
   5  JOBIPH            1.10 .       0/      68 .      0.0/      0.3 .       0/       0
   6  TDMFILE           0.01 .       6/       6 .      0.0/      0.0 .       0/       0
   7  ORDINT           11.28 .       1/      34 .      0.0/      8.3 .       0/       0
  - - - - - - - - - - - - - - - - - - - - - - - - - - - - - - - - - - - - - - - - - - -
   *  TOTAL            26.82 .     192/    1572 .      1.3/    310.4 .       0/       0
  - - - - - - - - - - - - - - - - - - - - - - - - - - - - - - - - - - - - - - - - - - -
 
  II. I/O Access Patterns
  - - - - - - - - - - - - - - - - - - - -
  Unit  Name               % of random
                         Write/Read calls
  - - - - - - - - - - - - - - - - - - - -
   1  SCRATCH             66.7/ 100.0
   2  ANNI                 0.0/   0.0
   3  RUNFILE             28.6/  10.9
   4  ONEINT               0.0/  97.0
   5  JOBIPH               0.0/  85.3
   6  TDMFILE             83.3/ 100.0
   7  ORDINT             100.0/  29.4
  - - - - - - - - - - - - - - - - - - - -
--
--- Stop Module: rassi at Sat Aug  8 10:06:09 2020 /rc=_RC_ALL_IS_WELL_ ---
*** files: symm.rassi.h5 xmldump
    saved to directory /home/gayverjr/OpenCAP/molcas_tests

.##################.
.# Happy landing! #.
.##################.

    Timing: Wall=7.83 User=4.91 System=2.80
