******************************************************
*** WorkDir and CurrDir are the same, not cleaned! ***
******************************************************
   This run of MOLCAS is using the pymolcas driver

                             OPE
                             OPE          NMOL  CASOP  ENMOLC A   SO
                 OPE        NMOLC        AS  OP EN  MO LC     AS  OP
                OPENM       OL CA        SO  PE NM  OL CA     SOP EN
                OP EN      MO   LC       AS  OP ENMOL  CASO   PENMOL
                OP  EN     MO   LC       AS  OP EN     MO     LC ASO
               OP   E  NMOL  C  AS       OP  EN MO     LC     AS  OP
               OP  E   NMO   LC AS        OPEN  MO     LCASOP EN   M
               O  PEN   MO  LCA  SO
            OPE   NMO   L   CAS    OP
        OPENMOL  CASOP     ENMOL   CASOPE
     OPENMOLCA   SOPENMOLCASOPEN   MOLCASOPE
    OPENMOLCAS   OP           EN   MOL    CAS
    OPENMOLCAS       OP  ENM        O     LCA
    OPENMOLCAS    OPEN  MOLCASO     P  E  NMO
    OPENMOLCAS     OP               E  N  MOL
    OPENMOLCA   SO           PENM   O  L  CAS    OPEN    MO    LCAS
    OPENMOLCA   SOP           ENM   O  L  CAS   OP  EN  MOLC  AS   O
    OPENMOLCA   SOPE           NM      O  LCA   S      OP  EN MO
    OPENMOLC                AS         O  PEN   M      OL  CA  SOPE
    OPENMO        LCASOPE  NMOL        C  ASO   P      ENMOLC     AS
    OPE     NMO      LCA  SO     P     E   NM   OL  CA SO  PE N   MO
          OPENMOLCA            SOPE   NMO        LCAS  O    P  ENMO
     OPENMOLCASOPENMOLCASOPENMOLCASOPENMOLCA
        OPENMOLCASOPENMOLCASOPENMOLCASOPE
            OPENMOLCASOPENMOLCASOPENM
               OPENMOLCASOPENMOLCA        version: 19.11
                   OPENMOLCASO
                       OPE                tag: 17-g792ff65

 OpenMolcas is free software; you can redistribute it and/or modify it
 under the terms of the GNU Lesser General Public License version 2.1.
 OpenMolcas is distributed in the hope that it will be useful, but it
 is provided "as is" and without any express or implied warranties.
 For more details see the full text of the license in the file
 LICENSE or in <http://www.gnu.org/licenses/>.

                 Copyright (C) The OpenMolcas Authors
           For the author list and the recommended citation,
                   consult the file CONTRIBUTORS.md

           *************************************************
           * pymolcas version py2.06                       *
           *   build 4d36a5e527230be6c379624704f71306      *
           *   (after the EMIL interpreter by V. Veryazov) *
           *************************************************

configuration info
------------------
C Compiler ID: GNU
C flags: -std=gnu99 -fopenmp
Fortran Compiler ID: GNU
Fortran flags: -cpp -fno-aggressive-loop-optimizations -fdefault-integer-8 -fopenmp
Definitions: _MOLCAS_;_I8_;_LINUX_;_MKL_;_DMRG_
Parallel: OFF (GA=OFF)


   ----------------------------------------------------------------------
  |
  |             Project: mscaspt2
  |      Submitted from: /scratch/gayverjr/mscaspt2.3499869183
  |        Scratch area: /scratch/gayverjr/mscaspt2.3499869183
  |     Save outputs to: /home/gayverjr/OpenCAP/molcas_test/N2
  |              Molcas: /home/qcsoftware/OpenMolCas_james/qcmaquis_build
  |
  | Scratch area is NOT empty
  |
  |      MOLCAS_DRIVER = /home/qcsoftware/bin/pymolcas
  | MOLCAS_NEW_WORKDIR = YES
  |      MOLCAS_NPROCS = 16
  |      MOLCAS_SOURCE = /home/qcsoftware/OpenMolCas_james/Molcas_src
  |   MOLCAS_STRUCTURE = 0
  |
   ----------------------------------------------------------------------

++ ---------   Input file   ---------

&GATEWAY
Expert
Basis set
 N.aug-cc-pvtz
 N1  0.0  0.0  1.039
 N2  0.0  0.0  -1.039
End of Basis
Basis set
X ..... / inline
   0.00   2
    3    3
               0.0288
               0.0144
               0.0072
      1.00000000             0.00000000             0.00000000
      0.00000000             1.00000000             0.00000000
      0.00000000             0.00000000             1.00000000
     3    3
               0.02455
               0.012275
               0.0061375
     1.00000000             0.00000000             0.00000000
     0.00000000             1.00000000             0.00000000
     0.00000000             0.00000000             1.00000000
     3    3
               0.0755
               0.03775
               0.018875
      1.000000E+00           0.000000E+00           0.000000E+00           0.00000000
      0.000000E+00           1.000000E+00           0.000000E+00           0.00000000
      0.000000E+00           0.000000E+00           1.000000E+00           0.00000000
X1  0.000  0.000  0.000
End of basis

&SEWARD

>>> COPY /home/gayverjr/OpenCAP/molcas_test/N2/gs.RasOrb INPORB

&RASSCF
LUMORB
Title = cas 3,9 test
Charge = -1
SPIN = 2
Ras2=10
TDM
NActEl=5,0,0
CIROOT= 10 10 1
Alter = 6
1 10 18
1 11 19
1 12 28
1 13 29
1 14 36
1 15 37

&CASPT2
MAXIter = 50
MULtistate = all

&RASSI
TRD1
Heff
EJOB

-- ----------------------------------

--- Start Module: gateway at Tue Apr 28 18:25:00 2020 ---

()()()()()()()()()()()()()()()()()()()()()()()()()()()()()()()()()()()()()()()()()()()()()()()()()()

                                              &GATEWAY

                                   only a single process is used
                       available to each process: 20 GB of memory, 16 threads
()()()()()()()()()()()()()()()()()()()()()()()()()()()()()()()()()()()()()()()()()()()()()()()()()()

 ###############################################################################
 ###############################################################################
 ###                                                                         ###
 ###                                                                         ###
 ###    WARNING:  EXPERT option is ON!                                       ###
 ###                                                                         ###
 ###                                                                         ###
 ###############################################################################
 ###############################################################################

++    Symmetry information:
      ---------------------

                    Character Table for C1 

                             E  
                    a        1  x, y, xy, Rz, z, xz, Ry, yz, Rx, I
--


++    Basis set information:
      ----------------------


      Basis set label: N.AUG-CC-PVTZ.........

      Electronic valence basis set:
      ------------------
      Associated Effective Charge   7.000000 au
      Associated Actual Charge      7.000000 au
      Nuclear Model: Point charge

      Shell  nPrim  nBasis  Cartesian Spherical Contaminant
         s      11       5        X                  
         p       6       4        X                  
         d       3       3                 X         
         f       2       2                 X         


      Basis set label: X...............................................................................

      Electronic valence basis set:
      ------------------
      Associated Effective Charge   0.000000 au
      Associated Actual Charge      0.000000 au
      Nuclear Model: Point charge

      Shell  nPrim  nBasis  Cartesian Spherical Contaminant
         s       3       3        X                  
         p       3       3        X                  
         d       3       3                 X         
--


++    Molecular structure info:
      -------------------------

                    ************************************************ 
                    **** Cartesian Coordinates / Bohr, Angstrom **** 
                    ************************************************ 

     Center  Label                x              y              z                     x              y              z
        1      N1               0.000000       0.000000       1.039000              0.000000       0.000000       0.549815
        2      N2               0.000000       0.000000      -1.039000              0.000000       0.000000      -0.549815
        3      X1               0.000000       0.000000       0.000000              0.000000       0.000000       0.000000

                    *************************************** 
                    *    InterNuclear Distances / Bohr    * 
                    *************************************** 

               1 N1            2 N2            3 X1    
    1 N1       0.000000
    2 N2       2.078000        0.000000
    3 X1       1.039000        1.039000        0.000000

                    ******************************************* 
                    *    InterNuclear Distances / Angstrom    * 
                    ******************************************* 

               1 N1            2 N2            3 X1    
    1 N1       0.000000
    2 N2       1.099630        0.000000
    3 X1       0.549815        0.549815        0.000000

                    ************************************** 
                    *    Valence Bond Angles / Degree    * 
                    ************************************** 
                          Atom centers                 Phi
                      2 N2       1 N1       3 X1         0.00
                      1 N1       2 N2       3 X1         0.00
                      1 N1       3 X1       2 N2       180.00
--


            Nuclear Potential Energy             23.58036574 au

--- Stop Module: gateway at Tue Apr 28 18:25:01 2020 /rc=_RC_ALL_IS_WELL_ ---
*** files: xmldump
    saved to directory /home/gayverjr/OpenCAP/molcas_test/N2
--- Module gateway spent 1 second ---

--- Start Module: seward at Tue Apr 28 18:25:02 2020 ---

()()()()()()()()()()()()()()()()()()()()()()()()()()()()()()()()()()()()()()()()()()()()()()()()()()

                                              &SEWARD

                                   only a single process is used
                       available to each process: 20 GB of memory, 16 threads
()()()()()()()()()()()()()()()()()()()()()()()()()()()()()()()()()()()()()()()()()()()()()()()()()()

               SEWARD will generate:
                  Multipole Moment integrals up to order  2
                  Kinetic Energy integrals
                  Nuclear Attraction integrals (point charge)
                  One-Electron Hamiltonian integrals
                  Velocity integrals
                  Orbital angular momentum around ( 0.0000  0.0000  0.0000 )
                  Velocity quadrupole around ( 0.0000  0.0000  0.0000 )
                  Two-Electron Repulsion integrals

                   Integrals are discarded if absolute value <: 0.10E-13
                   Integral cutoff threshold is set to       <: 0.10E-15

            Nuclear Potential Energy             23.58036574 au


      Basis set specifications :
      Symmetry species         a  
      Basis functions          119


  Input file to MOLDEN was generated!

--- Stop Module: seward at Tue Apr 28 18:25:06 2020 /rc=_RC_ALL_IS_WELL_ ---
*** files: mscaspt2.GssOrb mscaspt2.guessorb.h5 mscaspt2.guessorb.molden xmldump
    saved to directory /home/gayverjr/OpenCAP/molcas_test/N2
--- Module seward spent 4 seconds ---

>>> COPY /home/gayverjr/OpenCAP/molcas_test/N2/gs.RasOrb INPORB

--- Start Module: rasscf at Tue Apr 28 18:25:06 2020 ---

()()()()()()()()()()()()()()()()()()()()()()()()()()()()()()()()()()()()()()()()()()()()()()()()()()

                                              &RASSCF

                                   only a single process is used
                       available to each process: 20 GB of memory, 16 threads
()()()()()()()()()()()()()()()()()()()()()()()()()()()()()()()()()()()()()()()()()()()()()()()()()()


      Header of the ONEINT file:
      --------------------------
      
      Integrals generated by seward 4.2.0  , Tue Apr 28 18:25:02 2020


      OrdInt status: non-squared


      Cartesian coordinates in Angstrom:
      -----------------------------------------------------
      No.  Label        X            Y            Z        
      -----------------------------------------------------
       1   N1         0.00000000   0.00000000   0.54981512
       2   N2         0.00000000   0.00000000  -0.54981512
       3   X1         0.00000000   0.00000000   0.00000000
      -----------------------------------------------------
      Nuclear repulsion energy =   23.58036574

++    Wave function specifications:
      -----------------------------

      Number of closed shell electrons          10
      Number of electrons in active shells       5
      Max number of holes in RAS1 space          0
      Max nr of electrons in RAS3 space          0
      Number of inactive orbitals                5
      Number of active orbitals                 10
      Number of secondary orbitals             104
      Spin quantum number                      0.5
      State symmetry                             1
--

++    Orbital specifications:
      -----------------------

      Symmetry species                           1
                                                 a
      Frozen orbitals                            0
      Inactive orbitals                          5
      Active orbitals                           10
      RAS1 orbitals                              0
      RAS2 orbitals                             10
      RAS3 orbitals                              0
      Secondary orbitals                       104
      Deleted orbitals                           0
      Number of basis functions                119
--

++    CI expansion specifications:
      ----------------------------

      Number of CSFs                          3300
      Number of determinants                  5400
      Number of root(s) required                10
      Root chosen for geometry opt.             10
      CI roots used                              1     2     3     4     5     6     7     8     9    10
      weights                                0.100 0.100 0.100 0.100 0.100 0.100 0.100 0.100 0.100 0.100
      highest root included in the CI           10
      max. size of the explicit Hamiltonian    200
--

++    Optimization specifications:
      ----------------------------

      RASSCF algorithm: Conventional
      Maximum number of macro iterations       200
      Maximum number of SX iterations          100
      Threshold for RASSCF energy            0.100E-07
      Threshold for max MO rotation          0.100E+00
      Threshold for max BLB element          0.100E-03
      Level shift parameter                  0.500E+00
      Make Quasi-Newton update
--

      The MO-coefficients are taken from the file:
      INPORB                                                                                                                          
      Title: RASSCF average (pseudo-natural) orbitals                                      

      Total molecular charge   -1.00

      Molecular orbitals exchanged:
        In symmetry  1 :  10  18
        In symmetry  1 :  11  19
        In symmetry  1 :  12  28
        In symmetry  1 :  13  29
        In symmetry  1 :  14  36
        In symmetry  1 :  15  37


      ************************************************************************************************************************
      *                                                                                                                      *
      *                                            Wave function control section                                             *
      *                                                                                                                      *
      ************************************************************************************************************************


                                         RASSCF iterations: Energy and convergence statistics
                                         ----------------------------------------------------

      Iter CI   SX   CI       RASSCF       Energy    max ROT     max BLB   max BLB  Level Ln srch  Step   QN   Walltime
          iter iter root      energy       change     param      element    value   shift minimum  type update hh:mm:ss
 Nr of preliminary CI iterations:   8
        1   1    6    0  -108.85504645    0.00E+00  -0.92E-02    7  56 1  0.37E-01*  0.79   0.00    SX    NO    0:00:06
        2   1    5    0  -108.86001067   -0.50E-02* -0.48E-02    4  55 1 -0.77E-02*  0.79   0.00    SX    NO    0:00:03
        3   1    5    0  -108.86052683   -0.52E-03* -0.40E-02    4  47 1 -0.36E-02*  0.79   0.00    SX    NO    0:00:03
        4   4    5    0  -108.86068151   -0.15E-03* -0.34E-02    5  35 1 -0.21E-02*  0.79   0.00    SX    NO    0:00:03
        5   3    5    0  -108.86072839   -0.47E-04* -0.44E-02    5  26 1 -0.14E-02*  0.79   2.30    LS   YES    0:00:03
        6   3    4    0  -108.86075385   -0.25E-04* -0.28E-02    7  56 1 -0.61E-03*  0.79   1.16    QN   YES    0:00:03
        7   3    4    0  -108.86075763   -0.38E-05* -0.27E-02    4  58 1  0.30E-03*  0.79   2.00    LS   YES    0:00:03
        8   3    4    0  -108.86075894   -0.13E-05* -0.13E-02    4  47 1  0.29E-03*  0.79   1.04    QN   YES    0:00:03
        9   3    4    0  -108.86076013   -0.12E-05* -0.10E-02    6  57 1 -0.14E-03*  0.79   1.76    LS   YES    0:00:03
       10   3    4    0  -108.86076041   -0.28E-06* -0.56E-03    7  56 1  0.22E-03*  0.79   1.00    QN   YES    0:00:02
       11   1    4    0  -108.86076058   -0.17E-06* -0.65E-03    6  57 1 -0.98E-04   0.79   2.16    LS   YES    0:00:02
       12   3    4    0  -108.86076065   -0.71E-07* -0.21E-03    5  59 1 -0.63E-04   0.79   1.01    QN   YES    0:00:03
       13   1    4    0  -108.86076068   -0.21E-07* -0.20E-03    5  16 1 -0.34E-04   0.79   2.13    QN   YES    0:00:02
       14   1    3    0  -108.86076069   -0.11E-07* -0.16E-04    5  16 1 -0.88E-05   0.79   1.06    QN   YES    0:00:03
       15   1    3    0  -108.86076069   -0.42E-09   0.88E-05    5  59 1  0.46E-05   0.79   1.84    QN   YES    0:00:03
      Convergence after 15 iterations
       16   1    3    0  -108.86076069   -0.14E-09   0.88E-05    4  71 1  0.11E-05   0.79   1.84    QN   YES    0:00:03

      ************************************************************************************************************************
                                                      Wave function printout:
                       occupation of active orbitals, and spin coupling of open shells (u,d: Spin up or down)
      ************************************************************************************************************************

      Note: transformation to natural orbitals
      has been made, which may change the order of the CSFs.

      printout of CI-coefficients larger than  0.05 for root  1
      energy=    -109.018222
      conf/sym  1111111111     Coeff  Weight
             4  220u000000  -0.20401 0.04162
            76  22000u0000  -0.94447 0.89202
           101  02200u0000   0.13037 0.01700
           121  udud0u0000   0.11373 0.01293
           131  uudd0u0000  -0.09577 0.00917
           146  20020u0000   0.13450 0.01809

      printout of CI-coefficients larger than  0.05 for root  2
      energy=    -109.018222
      conf/sym  1111111111     Coeff  Weight
             1  22u0000000  -0.20401 0.04162
            21  2200u00000  -0.94447 0.89202
            26  0220u00000   0.13450 0.01809
            30  ududu00000   0.11373 0.01293
            32  uuddu00000  -0.09577 0.00917
            35  2002u00000   0.13037 0.01700

      printout of CI-coefficients larger than  0.05 for root  3
      energy=    -108.940339
      conf/sym  1111111111     Coeff  Weight
             1  22u0000000  -0.38405 0.14749
             4  220u000000  -0.06322 0.00400
            15  20u2000000  -0.05553 0.00308
            21  2200u00000   0.08491 0.00721
            77  220000u000   0.43987 0.19349
            78  2200000u00  -0.49416 0.24419
            79  22000000u0  -0.58316 0.34007
           102  022000u000  -0.06071 0.00369
           103  0220000u00   0.06821 0.00465
           104  02200000u0   0.08311 0.00691
           122  udud00u000  -0.05213 0.00272
           123  udud000u00   0.05856 0.00343
           124  udud0000u0   0.07014 0.00492
           134  uudd0000u0  -0.05959 0.00355
           147  200200u000  -0.06070 0.00368
           148  2002000u00   0.06818 0.00465
           149  20020000u0   0.08033 0.00645

      printout of CI-coefficients larger than  0.05 for root  4
      energy=    -108.940339
      conf/sym  1111111111     Coeff  Weight
             1  22u0000000  -0.06322 0.00400
             4  220u000000   0.38405 0.14749
             9  022u000000  -0.05553 0.00308
            76  22000u0000  -0.08491 0.00721
            77  220000u000  -0.49416 0.24419
            78  2200000u00  -0.43987 0.19349
            80  220000000u   0.58316 0.34007
           102  022000u000   0.06818 0.00465
           103  0220000u00   0.06070 0.00368
           105  022000000u  -0.08033 0.00645
           122  udud00u000   0.05856 0.00343
           123  udud000u00   0.05213 0.00272
           125  udud00000u  -0.07014 0.00492
           135  uudd00000u   0.05959 0.00355
           147  200200u000   0.06821 0.00465
           148  2002000u00   0.06071 0.00369
           150  200200000u  -0.08311 0.00691

      printout of CI-coefficients larger than  0.05 for root  5
      energy=    -108.869889
      conf/sym  1111111111     Coeff  Weight
             1  22u0000000   0.12025 0.01446
             4  220u000000  -0.73900 0.54612
             9  022u000000   0.10804 0.01167
            16  udu2000000   0.06602 0.00436
            18  uud2000000  -0.07499 0.00562
            76  22000u0000   0.16284 0.02652
            77  220000u000  -0.43620 0.19027
            78  2200000u00  -0.38684 0.14965
            80  220000000u  -0.14865 0.02210
           102  022000u000   0.06018 0.00362
           103  0220000u00   0.05337 0.00285
           122  udud00u000   0.05167 0.00267
           147  200200u000   0.06015 0.00362
           148  2002000u00   0.05335 0.00285

      printout of CI-coefficients larger than  0.05 for root  6
      energy=    -108.869889
      conf/sym  1111111111     Coeff  Weight
             1  22u0000000   0.73900 0.54612
             4  220u000000   0.12025 0.01446
             8  ud2u000000   0.06602 0.00436
            12  uu2d000000   0.07499 0.00562
            15  20u2000000   0.10804 0.01167
            21  2200u00000  -0.16284 0.02652
            77  220000u000   0.38684 0.14965
            78  2200000u00  -0.43620 0.19027
            79  22000000u0   0.14865 0.02210
           102  022000u000  -0.05335 0.00285
           103  0220000u00   0.06015 0.00362
           123  udud000u00   0.05167 0.00267
           147  200200u000  -0.05337 0.00285
           148  2002000u00   0.06018 0.00362

      printout of CI-coefficients larger than  0.05 for root  7
      energy=    -108.740344
      conf/sym  1111111111     Coeff  Weight
             1  22u0000000  -0.43917 0.19287
             4  220u000000  -0.09940 0.00988
            12  uu2d000000  -0.05036 0.00254
            15  20u2000000  -0.06544 0.00428
            21  2200u00000   0.09804 0.00961
            77  220000u000   0.28132 0.07914
            78  2200000u00  -0.28054 0.07870
            79  22000000u0   0.75541 0.57064
           104  02200000u0  -0.10134 0.01027
           124  udud0000u0  -0.08825 0.00779
           134  uudd0000u0   0.07359 0.00542
           149  20020000u0  -0.10395 0.01081

      printout of CI-coefficients larger than  0.05 for root  8
      energy=    -108.740344
      conf/sym  1111111111     Coeff  Weight
             1  22u0000000   0.09940 0.00988
             4  220u000000  -0.43917 0.19287
             9  022u000000   0.06544 0.00428
            18  uud2000000  -0.05036 0.00254
            76  22000u0000   0.09804 0.00961
            77  220000u000   0.28054 0.07870
            78  2200000u00   0.28132 0.07914
            80  220000000u   0.75541 0.57064
           105  022000000u  -0.10395 0.01081
           125  udud00000u  -0.08825 0.00779
           135  uudd00000u   0.07359 0.00542
           150  200200000u  -0.10134 0.01027

      printout of CI-coefficients larger than  0.05 for root  9
      energy=    -108.735009
      conf/sym  1111111111     Coeff  Weight
             3  u220000000  -0.16425 0.02698
             5  2udu000000  -0.12732 0.01621
            10  2uud000000  -0.06367 0.00405
            42  u2u0d00000  -0.66404 0.44094
            44  2u0ud00000  -0.66969 0.44849
            51  0u2ud00000  -0.13027 0.01697
            54  u0u2d00000  -0.12549 0.01575
            57  u200200000   0.10562 0.01116
           176  2u00du0000   0.07439 0.00553

      printout of CI-coefficients larger than  0.05 for root 10
      energy=    -108.735009
      conf/sym  1111111111     Coeff  Weight
            11  u2ud000000  -0.14210 0.02019
            13  2u02000000  -0.16425 0.02698
           331  u2u00d0000  -0.66969 0.44849
           341  2u0u0d0000  -0.66404 0.44094
           376  0u2u0d0000  -0.12549 0.01575
           391  u0u20d0000  -0.13027 0.01697
           406  u200ud0000   0.08546 0.00730
           551  2u00020000   0.10562 0.01116

      Natural orbitals and occupation numbers for root  1
      sym 1:   1.933525   1.933678   0.066478   0.066191   0.000000   1.000123   0.000000   0.000000   0.000003   0.000003


      Natural orbitals and occupation numbers for root  2
      sym 1:   1.933678   1.933525   0.066191   0.066478   1.000123   0.000000   0.000000   0.000000   0.000003   0.000003


      Natural orbitals and occupation numbers for root  3
      sym 1:   1.940075   1.934143   1.004289   0.065958   0.000000   0.000000   0.055527   0.000000   0.000004   0.000006


      Natural orbitals and occupation numbers for root  4
      sym 1:   1.934143   1.940075   0.065958   0.055527   0.000000   0.000000   1.004289   0.000000   0.000006   0.000004


      Natural orbitals and occupation numbers for root  5
      sym 1:   1.935611   1.961433   0.064790   1.014760   0.000000   0.000000   0.023382   0.000000   0.000012   0.000012


      Natural orbitals and occupation numbers for root  6
      sym 1:   1.961433   1.935611   1.014760   0.064790   0.000000   0.000000   0.023382   0.000000   0.000012   0.000012


      Natural orbitals and occupation numbers for root  7
      sym 1:   1.945403   1.934067   0.000003   0.066102   0.000000   0.000000   0.046449   0.000000   1.007965   0.000012


      Natural orbitals and occupation numbers for root  8
      sym 1:   1.934067   1.945403   0.066102   0.000003   0.000000   0.000000   0.046449   0.000000   0.000012   1.007965


      Natural orbitals and occupation numbers for root  9
      sym 1:   1.462462   1.465017   0.527216   0.534521   1.009896   0.000006   0.000000   0.000001   0.000410   0.000472


      Natural orbitals and occupation numbers for root 10
      sym 1:   1.465017   1.462462   0.534521   0.527216   0.000006   1.009896   0.000000   0.000001   0.000472   0.000410


      ************************************************************************************************************************
      *                                                                                                                      *
      *                                                    Final results                                                     *
      *                                                                                                                      *
      ************************************************************************************************************************


++    Wave function specifications:
      -----------------------------

      Number of closed shell electrons          10
      Number of electrons in active shells       5
      Max number of holes in RAS1 space          0
      Max nr of electrons in RAS3 space          0
      Number of inactive orbitals                5
      Number of active orbitals                 10
      Number of secondary orbitals             104
      Spin quantum number                      0.5
      State symmetry                             1
--

++    Orbital specifications:
      -----------------------

      Symmetry species                           1
                                                 a
      Frozen orbitals                            0
      Inactive orbitals                          5
      Active orbitals                           10
      RAS1 orbitals                              0
      RAS2 orbitals                             10
      RAS3 orbitals                              0
      Secondary orbitals                       104
      Deleted orbitals                           0
      Number of basis functions                119
--

++    CI expansion specifications:
      ----------------------------

      Number of CSFs                          3300
      Number of determinants                  5400
      Number of root(s) required                10
      CI roots used                              1     2     3     4     5     6     7     8     9    10
      weights                                0.100 0.100 0.100 0.100 0.100 0.100 0.100 0.100 0.100 0.100
      highest root included in the CI           10
      Root passed to geometry opt.              10
--

++    Final optimization conditions:
      ------------------------------

      Average CI energy                            -108.86076069
      RASSCF energy for state 10                   -108.73500926
      Super-CI energy                                -0.00000000
      RASSCF energy change                            0.00000000
      Max change in MO coefficients               0.207E-03
      Max non-diagonal density matrix element     0.884E-05
      Maximum BLB matrix element                  0.108E-05
      (orbital pair   4,  71 in symmetry   1)
      Norm of electronic gradient            0.129E+00
--


      Final state energy(ies):
      ------------------------

::    RASSCF root number  1 Total energy:   -109.01822160
::    RASSCF root number  2 Total energy:   -109.01822160
::    RASSCF root number  3 Total energy:   -108.94033895
::    RASSCF root number  4 Total energy:   -108.94033895
::    RASSCF root number  5 Total energy:   -108.86988934
::    RASSCF root number  6 Total energy:   -108.86988934
::    RASSCF root number  7 Total energy:   -108.74034430
::    RASSCF root number  8 Total energy:   -108.74034430
::    RASSCF root number  9 Total energy:   -108.73500926
::    RASSCF root number 10 Total energy:   -108.73500926

++    Molecular orbitals:
      -------------------

      Pseudonatural active orbitals and approximate occupation numbers




      Molecular orbitals for symmetry species 1: a  


      Orbital                 1         2         3         4         5         6         7         8         9        10
      Energy           -15.4746  -15.4713   -1.2874   -0.5998   -0.4485    0.0000    0.0000    0.0000    0.0000    0.0000
      Occ. No.           2.0000    2.0000    2.0000    2.0000    2.0000    1.8445    1.8445    0.2567    0.2567    0.1984

     1 N1     1s         0.7068   -0.7065   -0.0172   -0.0035   -0.0039    0.0000   -0.0000    0.0000    0.0000   -0.0000
     2 N1     1s         0.0014    0.0013    0.6314   -0.6484   -0.2289    0.0000   -0.0000    0.0000    0.0000   -0.0000
     3 N1     1s         0.0014   -0.0009   -0.0052    0.0025    0.0016    0.0000   -0.0000    0.0000    0.0000   -0.0000
     4 N1     1s         0.0013   -0.0216   -0.1216   -0.2370   -0.1677    0.0000   -0.0000    0.0000    0.0000   -0.0000
     5 N1     1s         0.0020   -0.0077    0.0132   -0.0865   -0.1175    0.0000   -0.0000   -0.0000   -0.0000   -0.0000
     6 N1     2px        0.0000   -0.0000    0.0000   -0.0000   -0.0000    0.1508    0.6181    0.1485   -0.7817    0.0024
     7 N1     2px       -0.0000    0.0000    0.0000   -0.0000    0.0000   -0.0021   -0.0086    0.0022   -0.0114   -0.0001
     8 N1     2px       -0.0000    0.0000    0.0000   -0.0000   -0.0000   -0.0097   -0.0397    0.0353   -0.1857   -0.0057
     9 N1     2px       -0.0000   -0.0000   -0.0000    0.0000   -0.0000   -0.0001   -0.0003    0.1955   -1.0291   -0.1465
    10 N1     2py        0.0000   -0.0000    0.0000   -0.0000   -0.0000   -0.6181    0.1508   -0.7817   -0.1485    0.1410
    11 N1     2py       -0.0000    0.0000    0.0000   -0.0000    0.0000    0.0086   -0.0021   -0.0114   -0.0022   -0.0069
    12 N1     2py       -0.0000    0.0000    0.0000   -0.0000   -0.0000    0.0397   -0.0097   -0.1857   -0.0353   -0.3410
    13 N1     2py        0.0000   -0.0000   -0.0000    0.0000   -0.0000    0.0003   -0.0001   -1.0291   -0.1955   -8.7248
    14 N1     2pz       -0.0054    0.0034   -0.3415   -0.3094   -0.6824    0.0000   -0.0000    0.0000    0.0000   -0.0000
    15 N1     2pz        0.0028   -0.0008    0.0362    0.0235    0.0441   -0.0000    0.0000   -0.0000   -0.0000    0.0000
    16 N1     2pz        0.0038    0.0084    0.1302    0.1093    0.0723   -0.0000    0.0000   -0.0000   -0.0000    0.0000
    17 N1     2pz        0.0076    0.0018    0.0681    0.0102   -0.1350    0.0000   -0.0000    0.0000    0.0000    0.0000
    18 N1     3d2-      -0.0000    0.0000   -0.0000   -0.0000   -0.0000   -0.0000    0.0000    0.0000    0.0000   -0.0000
    19 N1     3d2-      -0.0000   -0.0000   -0.0000    0.0000    0.0000   -0.0000    0.0000    0.0000    0.0000   -0.0000
    20 N1     3d2-       0.0000    0.0000   -0.0000   -0.0000    0.0000   -0.0000    0.0000   -0.0000   -0.0000    0.0000
    21 N1     3d1-      -0.0000    0.0000   -0.0000   -0.0000    0.0000    0.0180   -0.0044   -0.0067   -0.0013   -0.0006
    22 N1     3d1-      -0.0000   -0.0000   -0.0000   -0.0000   -0.0000    0.0300   -0.0073   -0.0028   -0.0005    0.0335
    23 N1     3d1-      -0.0000   -0.0000    0.0000   -0.0000   -0.0000    0.0035   -0.0009    0.0457    0.0087    0.1354
    24 N1     3d0        0.0006   -0.0007    0.0206    0.0037    0.0188   -0.0000    0.0000   -0.0000   -0.0000    0.0000
    25 N1     3d0       -0.0011   -0.0009    0.0161    0.0026    0.0175    0.0000   -0.0000   -0.0000   -0.0000    0.0000
    26 N1     3d0       -0.0003   -0.0016   -0.0261   -0.0127   -0.0041    0.0000   -0.0000    0.0000    0.0000   -0.0000
    27 N1     3d1+      -0.0000    0.0000   -0.0000   -0.0000    0.0000   -0.0044   -0.0180    0.0013   -0.0067   -0.0000
    28 N1     3d1+      -0.0000   -0.0000   -0.0000   -0.0000   -0.0000   -0.0073   -0.0300    0.0005   -0.0028    0.0006
    29 N1     3d1+      -0.0000   -0.0000    0.0000   -0.0000   -0.0000   -0.0009   -0.0035   -0.0087    0.0457    0.0023
    30 N1     3d2+       0.0000    0.0000    0.0000   -0.0000   -0.0000    0.0000    0.0000   -0.0000    0.0000    0.0000
    31 N1     3d2+       0.0000   -0.0000    0.0000   -0.0000   -0.0000    0.0000    0.0000   -0.0000    0.0000    0.0000
    32 N1     3d2+      -0.0000   -0.0000    0.0000    0.0000    0.0000    0.0000    0.0000    0.0000   -0.0000   -0.0000
    33 N1     4f3-       0.0000    0.0000    0.0000   -0.0000    0.0000    0.0000    0.0000    0.0000   -0.0000   -0.0000
    34 N1     4f3-       0.0000   -0.0000   -0.0000   -0.0000    0.0000    0.0000    0.0000    0.0000   -0.0000    0.0000
    35 N1     4f2-       0.0000   -0.0000   -0.0000    0.0000    0.0000    0.0000   -0.0000    0.0000    0.0000    0.0000
    36 N1     4f2-      -0.0000   -0.0000    0.0000    0.0000   -0.0000   -0.0000    0.0000   -0.0000   -0.0000   -0.0000
    37 N1     4f1-      -0.0000    0.0000    0.0000    0.0000   -0.0000   -0.0071    0.0017    0.0066    0.0013   -0.0020
    38 N1     4f1-       0.0000    0.0000    0.0000   -0.0000   -0.0000    0.0002   -0.0000   -0.0000   -0.0000   -0.0217
    39 N1     4f0        0.0002    0.0005   -0.0079    0.0008   -0.0060   -0.0000    0.0000   -0.0000   -0.0000   -0.0000
    40 N1     4f0        0.0005    0.0000    0.0047   -0.0002    0.0024   -0.0000    0.0000    0.0000    0.0000    0.0000
    41 N1     4f1+      -0.0000    0.0000    0.0000    0.0000   -0.0000    0.0017    0.0071   -0.0013    0.0066   -0.0000
    42 N1     4f1+       0.0000    0.0000    0.0000   -0.0000   -0.0000   -0.0000   -0.0002    0.0000   -0.0000   -0.0004
    43 N1     4f2+       0.0000   -0.0000   -0.0000    0.0000    0.0000   -0.0000   -0.0000   -0.0000    0.0000   -0.0000
    44 N1     4f2+      -0.0000   -0.0000   -0.0000    0.0000   -0.0000    0.0000    0.0000    0.0000   -0.0000    0.0000
    45 N1     4f3+      -0.0000   -0.0000   -0.0000   -0.0000    0.0000   -0.0000    0.0000   -0.0000   -0.0000    0.0000
    46 N1     4f3+       0.0000   -0.0000    0.0000    0.0000   -0.0000   -0.0000    0.0000   -0.0000   -0.0000   -0.0000
    47 N2     1s         0.7068    0.7065   -0.0172    0.0035   -0.0039    0.0000   -0.0000   -0.0000   -0.0000    0.0000
    48 N2     1s         0.0014   -0.0013    0.6314    0.6484   -0.2289    0.0000   -0.0000   -0.0000   -0.0000    0.0000
    49 N2     1s         0.0014    0.0009   -0.0052   -0.0025    0.0016    0.0000   -0.0000   -0.0000   -0.0000    0.0000
    50 N2     1s         0.0013    0.0216   -0.1216    0.2370   -0.1677   -0.0000    0.0000   -0.0000   -0.0000    0.0000
    51 N2     1s         0.0020    0.0077    0.0132    0.0865   -0.1175    0.0000   -0.0000    0.0000    0.0000    0.0000
    52 N2     2px        0.0000    0.0000    0.0000    0.0000   -0.0000    0.1508    0.6181   -0.1485    0.7817   -0.0024
    53 N2     2px       -0.0000   -0.0000    0.0000    0.0000    0.0000   -0.0021   -0.0086   -0.0022    0.0114    0.0001
    54 N2     2px       -0.0000   -0.0000    0.0000    0.0000   -0.0000   -0.0097   -0.0397   -0.0353    0.1857    0.0057
    55 N2     2px       -0.0000    0.0000   -0.0000   -0.0000   -0.0000   -0.0001   -0.0003   -0.1955    1.0291    0.1465
    56 N2     2py        0.0000    0.0000    0.0000    0.0000   -0.0000   -0.6181    0.1508    0.7817    0.1485   -0.1410
    57 N2     2py       -0.0000   -0.0000    0.0000    0.0000    0.0000    0.0086   -0.0021    0.0114    0.0022    0.0069
    58 N2     2py       -0.0000   -0.0000    0.0000    0.0000   -0.0000    0.0397   -0.0097    0.1857    0.0353    0.3410
    59 N2     2py       -0.0000    0.0000    0.0000   -0.0000   -0.0000    0.0003   -0.0001    1.0291    0.1955    8.7248
    60 N2     2pz        0.0054    0.0034    0.3415   -0.3094    0.6824   -0.0000    0.0000    0.0000    0.0000   -0.0000
    61 N2     2pz       -0.0028   -0.0008   -0.0362    0.0235   -0.0441    0.0000   -0.0000   -0.0000   -0.0000    0.0000
    62 N2     2pz       -0.0038    0.0084   -0.1302    0.1093   -0.0723    0.0000   -0.0000   -0.0000   -0.0000    0.0000
    63 N2     2pz       -0.0076    0.0018   -0.0681    0.0102    0.1350   -0.0000    0.0000    0.0000    0.0000    0.0000
    64 N2     3d2-       0.0000   -0.0000   -0.0000    0.0000    0.0000   -0.0000    0.0000   -0.0000   -0.0000    0.0000
    65 N2     3d2-      -0.0000   -0.0000   -0.0000    0.0000   -0.0000   -0.0000    0.0000   -0.0000   -0.0000    0.0000
    66 N2     3d2-       0.0000    0.0000    0.0000   -0.0000    0.0000   -0.0000    0.0000    0.0000    0.0000   -0.0000
    67 N2     3d1-       0.0000    0.0000    0.0000   -0.0000   -0.0000   -0.0180    0.0044   -0.0067   -0.0013   -0.0006
    68 N2     3d1-       0.0000   -0.0000    0.0000   -0.0000    0.0000   -0.0300    0.0073   -0.0028   -0.0005    0.0335
    69 N2     3d1-       0.0000   -0.0000   -0.0000   -0.0000    0.0000   -0.0035    0.0009    0.0457    0.0087    0.1354
    70 N2     3d0        0.0006    0.0007    0.0206   -0.0037    0.0188   -0.0000    0.0000    0.0000    0.0000   -0.0000
    71 N2     3d0       -0.0011    0.0009    0.0161   -0.0026    0.0175    0.0000   -0.0000    0.0000    0.0000   -0.0000
    72 N2     3d0       -0.0003    0.0016   -0.0261    0.0127   -0.0041    0.0000   -0.0000   -0.0000   -0.0000    0.0000
    73 N2     3d1+       0.0000    0.0000    0.0000   -0.0000   -0.0000    0.0044    0.0180    0.0013   -0.0067   -0.0000
    74 N2     3d1+       0.0000   -0.0000    0.0000   -0.0000    0.0000    0.0073    0.0300    0.0005   -0.0028    0.0006
    75 N2     3d1+       0.0000   -0.0000   -0.0000   -0.0000    0.0000    0.0009    0.0035   -0.0087    0.0457    0.0023
    76 N2     3d2+      -0.0000   -0.0000   -0.0000    0.0000   -0.0000    0.0000    0.0000    0.0000   -0.0000   -0.0000
    77 N2     3d2+       0.0000    0.0000   -0.0000    0.0000    0.0000    0.0000    0.0000    0.0000   -0.0000   -0.0000
    78 N2     3d2+      -0.0000    0.0000    0.0000    0.0000   -0.0000    0.0000    0.0000   -0.0000    0.0000    0.0000
    79 N2     4f3-      -0.0000    0.0000    0.0000    0.0000   -0.0000    0.0000    0.0000   -0.0000    0.0000    0.0000
    80 N2     4f3-      -0.0000    0.0000    0.0000   -0.0000    0.0000    0.0000    0.0000   -0.0000    0.0000   -0.0000
    81 N2     4f2-       0.0000   -0.0000   -0.0000    0.0000    0.0000   -0.0000    0.0000    0.0000    0.0000    0.0000
    82 N2     4f2-       0.0000   -0.0000    0.0000    0.0000   -0.0000    0.0000   -0.0000   -0.0000   -0.0000   -0.0000
    83 N2     4f1-      -0.0000   -0.0000    0.0000   -0.0000   -0.0000   -0.0071    0.0017   -0.0066   -0.0013    0.0020
    84 N2     4f1-       0.0000   -0.0000    0.0000    0.0000   -0.0000    0.0002   -0.0000    0.0000    0.0000    0.0217
    85 N2     4f0       -0.0002    0.0005    0.0079    0.0008    0.0060    0.0000   -0.0000   -0.0000   -0.0000   -0.0000
    86 N2     4f0       -0.0005    0.0000   -0.0047   -0.0002   -0.0024    0.0000   -0.0000    0.0000    0.0000    0.0000
    87 N2     4f1+      -0.0000   -0.0000    0.0000   -0.0000   -0.0000    0.0017    0.0071    0.0013   -0.0066    0.0000
    88 N2     4f1+       0.0000   -0.0000    0.0000    0.0000   -0.0000   -0.0000   -0.0002   -0.0000    0.0000    0.0004
    89 N2     4f2+       0.0000   -0.0000   -0.0000    0.0000    0.0000    0.0000    0.0000   -0.0000    0.0000   -0.0000
    90 N2     4f2+      -0.0000   -0.0000   -0.0000    0.0000   -0.0000   -0.0000   -0.0000    0.0000   -0.0000    0.0000
    91 N2     4f3+      -0.0000    0.0000    0.0000    0.0000   -0.0000   -0.0000    0.0000    0.0000    0.0000   -0.0000
    92 N2     4f3+       0.0000   -0.0000    0.0000   -0.0000    0.0000   -0.0000    0.0000    0.0000    0.0000    0.0000
    93 X1     1s        -0.0038    0.0000   -0.0283    0.0000    0.1352   -0.0000    0.0000    0.0000    0.0000   -0.0000
    94 X1     1s        -0.0002   -0.0000   -0.0030   -0.0000   -0.0300    0.0000   -0.0000   -0.0000   -0.0000    0.0000
    95 X1     1s         0.0002    0.0000    0.0015    0.0000    0.0060   -0.0000    0.0000    0.0000    0.0000   -0.0000
    96 X1     2px        0.0000   -0.0000    0.0000   -0.0000    0.0000    0.0051    0.0208   -0.0000    0.0000    0.0000
    97 X1     2px       -0.0000   -0.0000   -0.0000    0.0000   -0.0000   -0.0036   -0.0146    0.0000   -0.0000    0.0000
    98 X1     2px        0.0000    0.0000    0.0000   -0.0000    0.0000    0.0012    0.0049   -0.0000    0.0000   -0.0000
    99 X1     2py        0.0000   -0.0000    0.0000   -0.0000    0.0000   -0.0208    0.0051    0.0000    0.0000   -0.0000
   100 X1     2py       -0.0000    0.0000   -0.0000    0.0000   -0.0000    0.0146   -0.0036   -0.0000   -0.0000    0.0000
   101 X1     2py        0.0000    0.0000    0.0000   -0.0000    0.0000   -0.0049    0.0012    0.0000    0.0000   -0.0000
   102 X1     2pz       -0.0000   -0.0005   -0.0000   -0.0048   -0.0000    0.0000   -0.0000   -0.0000   -0.0000   -0.0000
   103 X1     2pz        0.0000    0.0001    0.0000    0.0029    0.0000    0.0000    0.0000   -0.0000   -0.0000    0.0000
   104 X1     2pz       -0.0000   -0.0000   -0.0000   -0.0010   -0.0000   -0.0000   -0.0000   -0.0000   -0.0000   -0.0000
   105 X1     3d2-       0.0000   -0.0000    0.0000    0.0000    0.0000    0.0000   -0.0000    0.0000   -0.0000   -0.0000
   106 X1     3d2-      -0.0000   -0.0000   -0.0000   -0.0000   -0.0000   -0.0000    0.0000    0.0000    0.0000    0.0000
   107 X1     3d2-       0.0000    0.0000    0.0000    0.0000    0.0000    0.0000   -0.0000   -0.0000   -0.0000   -0.0000
   108 X1     3d1-      -0.0000    0.0000    0.0000   -0.0000   -0.0000   -0.0000    0.0000    0.0915    0.0174    0.8386
   109 X1     3d1-      -0.0000    0.0000    0.0000   -0.0000   -0.0000   -0.0000    0.0000    0.5201    0.0988    4.2975
   110 X1     3d1-       0.0000   -0.0000   -0.0000    0.0000    0.0000    0.0000   -0.0000   -0.2807   -0.0533   -2.0900
   111 X1     3d0       -0.0024    0.0000    0.0039    0.0000    0.0492   -0.0000    0.0000    0.0000    0.0000   -0.0000
   112 X1     3d0       -0.0026    0.0000   -0.0336    0.0000    0.0386   -0.0000    0.0000   -0.0000   -0.0000    0.0000
   113 X1     3d0        0.0003    0.0000    0.0053   -0.0000   -0.0018   -0.0000    0.0000    0.0000    0.0000   -0.0000
   114 X1     3d1+      -0.0000    0.0000    0.0000   -0.0000   -0.0000    0.0000    0.0000   -0.0174    0.0915    0.0141
   115 X1     3d1+      -0.0000    0.0000    0.0000   -0.0000   -0.0000    0.0000    0.0000   -0.0988    0.5201    0.0721
   116 X1     3d1+       0.0000   -0.0000   -0.0000    0.0000    0.0000   -0.0000   -0.0000    0.0533   -0.2807   -0.0351
   117 X1     3d2+      -0.0000   -0.0000   -0.0000   -0.0000   -0.0000   -0.0000   -0.0000   -0.0000    0.0000    0.0000
   118 X1     3d2+       0.0000    0.0000    0.0000   -0.0000    0.0000    0.0000    0.0000   -0.0000   -0.0000    0.0000
   119 X1     3d2+      -0.0000   -0.0000   -0.0000   -0.0000   -0.0000   -0.0000   -0.0000    0.0000    0.0000    0.0000


      Orbital                11        12        13        14        15        16        17        18        19        20
      Energy             0.0000    0.0000    0.0000    0.0000    0.0000    0.0688    0.0688    0.0695    0.0764    0.1207
      Occ. No.           0.1984    0.1000    0.1000    0.1004    0.1004    0.0000    0.0000    0.0000    0.0000    0.0000

     1 N1     1s        -0.0000   -0.0000   -0.0000   -0.0000   -0.0000    0.0000   -0.0000   -0.0009   -0.0008   -0.0000
     2 N1     1s        -0.0000   -0.0000   -0.0000   -0.0000   -0.0000    0.0000   -0.0000   -0.0050   -0.0076    0.0000
     3 N1     1s        -0.0000   -0.0000   -0.0000   -0.0000   -0.0000   -0.0000    0.0000    0.0008    0.0008    0.0000
     4 N1     1s        -0.0000   -0.0000   -0.0000   -0.0000   -0.0000    0.0000   -0.0000    0.1017    0.0207    0.0000
     5 N1     1s        -0.0000   -0.0000   -0.0000   -0.0000   -0.0000    0.0000   -0.0000    1.8791   -2.2535   -0.0000
     6 N1     2px        0.1410    0.0141    0.0132    0.0088    0.1509   -0.0008   -0.0000   -0.0000   -0.0000    0.0240
     7 N1     2px       -0.0069   -0.0169   -0.0158   -0.0000   -0.0008    0.0076    0.0001    0.0000    0.0000   -0.0138
     8 N1     2px       -0.3410   -1.0244   -0.9579   -0.0375   -0.6402   -0.0282   -0.0003    0.0000   -0.0000    0.0530
     9 N1     2px       -8.7248  -29.4525  -27.5418   -1.2816  -21.8727    0.1983    0.0019    0.0000    0.0000   -0.3758
    10 N1     2py       -0.0024    0.0132   -0.0141    0.1509   -0.0088   -0.0000    0.0008   -0.0000   -0.0000    0.0000
    11 N1     2py        0.0001   -0.0158    0.0169   -0.0008    0.0000    0.0001   -0.0076    0.0000    0.0000   -0.0000
    12 N1     2py        0.0057   -0.9579    1.0244   -0.6402    0.0375   -0.0003    0.0282    0.0000   -0.0000    0.0000
    13 N1     2py        0.1465  -27.5418   29.4525  -21.8727    1.2816    0.0019   -0.1983    0.0000    0.0000   -0.0001
    14 N1     2pz       -0.0000   -0.0000   -0.0000   -0.0000   -0.0000    0.0000   -0.0000   -0.0000   -0.0071    0.0000
    15 N1     2pz        0.0000    0.0000    0.0000    0.0000    0.0000   -0.0000    0.0000   -0.0018    0.0030    0.0000
    16 N1     2pz        0.0000    0.0000    0.0000    0.0000    0.0000    0.0000   -0.0000   -0.0451   -0.0173   -0.0000
    17 N1     2pz        0.0000    0.0000    0.0000    0.0000    0.0000    0.0000   -0.0000   -0.8770   -2.3504   -0.0000
    18 N1     3d2-      -0.0000   -0.0000    0.0000   -0.0000   -0.0000    0.0000   -0.0000   -0.0000    0.0000    0.0000
    19 N1     3d2-      -0.0000   -0.0000    0.0000   -0.0000   -0.0000   -0.0000    0.0000   -0.0000   -0.0000   -0.0000
    20 N1     3d2-       0.0000    0.0000   -0.0000    0.0000    0.0000    0.0000   -0.0000    0.0000    0.0000    0.0000
    21 N1     3d1-       0.0000   -0.0047    0.0050   -0.0035    0.0002   -0.0000    0.0001    0.0000   -0.0000   -0.0000
    22 N1     3d1-      -0.0006    0.0934   -0.0999    0.0713   -0.0042    0.0000   -0.0001   -0.0000    0.0000   -0.0000
    23 N1     3d1-      -0.0023    0.2704   -0.2891    0.1007   -0.0059   -0.0000    0.0042   -0.0000   -0.0000    0.0000
    24 N1     3d0        0.0000    0.0000    0.0000    0.0000    0.0000    0.0000   -0.0000    0.0002   -0.0005   -0.0000
    25 N1     3d0        0.0000   -0.0000   -0.0000    0.0000    0.0000   -0.0000    0.0000   -0.0020    0.0034    0.0000
    26 N1     3d0       -0.0000   -0.0000   -0.0000   -0.0000   -0.0000    0.0000   -0.0000    0.0319   -0.0443   -0.0000
    27 N1     3d1+      -0.0006   -0.0050   -0.0047   -0.0002   -0.0035   -0.0001   -0.0000    0.0000   -0.0000   -0.0007
    28 N1     3d1+       0.0335    0.0999    0.0934    0.0042    0.0713    0.0001    0.0000   -0.0000    0.0000   -0.0021
    29 N1     3d1+       0.1354    0.2891    0.2704    0.0059    0.1007   -0.0042   -0.0000   -0.0000   -0.0000    0.0079
    30 N1     3d2+      -0.0000   -0.0000   -0.0000    0.0000   -0.0000    0.0000    0.0000    0.0000   -0.0000    0.0000
    31 N1     3d2+      -0.0000   -0.0000   -0.0000    0.0000   -0.0000   -0.0000   -0.0000   -0.0000    0.0000   -0.0000
    32 N1     3d2+       0.0000    0.0000    0.0000   -0.0000    0.0000    0.0000    0.0000    0.0000   -0.0000    0.0000
    33 N1     4f3-       0.0000   -0.0000   -0.0000   -0.0000    0.0000    0.0000    0.0000   -0.0000   -0.0000    0.0000
    34 N1     4f3-      -0.0000   -0.0000    0.0000   -0.0000    0.0000    0.0000    0.0000   -0.0000    0.0000    0.0000
    35 N1     4f2-       0.0000   -0.0000    0.0000    0.0000    0.0000   -0.0000    0.0000   -0.0000   -0.0000   -0.0000
    36 N1     4f2-      -0.0000    0.0000   -0.0000   -0.0000   -0.0000    0.0000   -0.0000    0.0000   -0.0000   -0.0000
    37 N1     4f1-       0.0000   -0.0037    0.0039   -0.0053    0.0003   -0.0000    0.0004    0.0000   -0.0000    0.0000
    38 N1     4f1-       0.0004   -0.0519    0.0555   -0.0344    0.0020    0.0000   -0.0011    0.0000    0.0000   -0.0000
    39 N1     4f0       -0.0000    0.0000    0.0000    0.0000    0.0000    0.0000   -0.0000    0.0006   -0.0011   -0.0000
    40 N1     4f0        0.0000    0.0000    0.0000   -0.0000    0.0000   -0.0000    0.0000   -0.0040    0.0034    0.0000
    41 N1     4f1+      -0.0020   -0.0039   -0.0037   -0.0003   -0.0053   -0.0004   -0.0000    0.0000   -0.0000    0.0010
    42 N1     4f1+      -0.0217   -0.0555   -0.0519   -0.0020   -0.0344    0.0011    0.0000    0.0000    0.0000   -0.0020
    43 N1     4f2+       0.0000   -0.0000   -0.0000   -0.0000    0.0000   -0.0000   -0.0000    0.0000   -0.0000   -0.0000
    44 N1     4f2+      -0.0000    0.0000    0.0000    0.0000   -0.0000    0.0000    0.0000   -0.0000    0.0000   -0.0000
    45 N1     4f3+       0.0000   -0.0000    0.0000    0.0000    0.0000    0.0000   -0.0000   -0.0000   -0.0000    0.0000
    46 N1     4f3+      -0.0000    0.0000    0.0000    0.0000    0.0000    0.0000   -0.0000   -0.0000    0.0000    0.0000
    47 N2     1s         0.0000    0.0000    0.0000    0.0000    0.0000    0.0000   -0.0000    0.0009   -0.0008   -0.0000
    48 N2     1s         0.0000    0.0000    0.0000    0.0000    0.0000    0.0000   -0.0000    0.0050   -0.0076    0.0000
    49 N2     1s         0.0000    0.0000    0.0000    0.0000    0.0000   -0.0000    0.0000   -0.0008    0.0008    0.0000
    50 N2     1s         0.0000    0.0000    0.0000    0.0000    0.0000    0.0000   -0.0000   -0.1017    0.0207    0.0000
    51 N2     1s         0.0000    0.0000    0.0000    0.0000    0.0000    0.0000   -0.0000   -1.8791   -2.2535   -0.0000
    52 N2     2px       -0.1410   -0.0141   -0.0132   -0.0088   -0.1509   -0.0008   -0.0000    0.0000    0.0000    0.0240
    53 N2     2px        0.0069    0.0169    0.0158    0.0000    0.0008    0.0076    0.0001   -0.0000    0.0000   -0.0138
    54 N2     2px        0.3410    1.0244    0.9579    0.0375    0.6402   -0.0282   -0.0003   -0.0000   -0.0000    0.0530
    55 N2     2px        8.7248   29.4525   27.5418    1.2816   21.8727    0.1983    0.0019   -0.0000   -0.0000   -0.3758
    56 N2     2py        0.0024   -0.0132    0.0141   -0.1509    0.0088   -0.0000    0.0008    0.0000    0.0000    0.0000
    57 N2     2py       -0.0001    0.0158   -0.0169    0.0008   -0.0000    0.0001   -0.0076   -0.0000    0.0000   -0.0000
    58 N2     2py       -0.0057    0.9579   -1.0244    0.6402   -0.0375   -0.0003    0.0282   -0.0000   -0.0000    0.0000
    59 N2     2py       -0.1465   27.5418  -29.4525   21.8727   -1.2816    0.0019   -0.1983   -0.0000    0.0000   -0.0001
    60 N2     2pz       -0.0000   -0.0000   -0.0000   -0.0000   -0.0000   -0.0000    0.0000   -0.0000    0.0071   -0.0000
    61 N2     2pz        0.0000    0.0000    0.0000    0.0000    0.0000    0.0000   -0.0000   -0.0018   -0.0030   -0.0000
    62 N2     2pz        0.0000    0.0000    0.0000    0.0000    0.0000   -0.0000    0.0000   -0.0451    0.0173    0.0000
    63 N2     2pz        0.0000    0.0000    0.0000    0.0000    0.0000   -0.0000    0.0000   -0.8770    2.3504    0.0000
    64 N2     3d2-       0.0000    0.0000   -0.0000    0.0000    0.0000    0.0000   -0.0000   -0.0000    0.0000    0.0000
    65 N2     3d2-       0.0000    0.0000   -0.0000    0.0000    0.0000   -0.0000    0.0000    0.0000   -0.0000   -0.0000
    66 N2     3d2-      -0.0000   -0.0000    0.0000   -0.0000   -0.0000    0.0000   -0.0000    0.0000   -0.0000    0.0000
    67 N2     3d1-       0.0000   -0.0047    0.0050   -0.0035    0.0002    0.0000   -0.0001    0.0000    0.0000    0.0000
    68 N2     3d1-      -0.0006    0.0934   -0.0999    0.0713   -0.0042   -0.0000    0.0001   -0.0000   -0.0000    0.0000
    69 N2     3d1-      -0.0023    0.2704   -0.2891    0.1007   -0.0059    0.0000   -0.0042   -0.0000    0.0000   -0.0000
    70 N2     3d0       -0.0000   -0.0000   -0.0000   -0.0000   -0.0000    0.0000   -0.0000   -0.0002   -0.0005   -0.0000
    71 N2     3d0       -0.0000    0.0000    0.0000   -0.0000   -0.0000   -0.0000    0.0000    0.0020    0.0034    0.0000
    72 N2     3d0        0.0000    0.0000    0.0000    0.0000    0.0000    0.0000   -0.0000   -0.0319   -0.0443   -0.0000
    73 N2     3d1+      -0.0006   -0.0050   -0.0047   -0.0002   -0.0035    0.0001    0.0000    0.0000    0.0000    0.0007
    74 N2     3d1+       0.0335    0.0999    0.0934    0.0042    0.0713   -0.0001   -0.0000   -0.0000   -0.0000    0.0021
    75 N2     3d1+       0.1354    0.2891    0.2704    0.0059    0.1007    0.0042    0.0000   -0.0000    0.0000   -0.0079
    76 N2     3d2+       0.0000    0.0000    0.0000   -0.0000    0.0000    0.0000    0.0000   -0.0000   -0.0000    0.0000
    77 N2     3d2+       0.0000    0.0000    0.0000   -0.0000    0.0000   -0.0000   -0.0000    0.0000    0.0000   -0.0000
    78 N2     3d2+      -0.0000   -0.0000   -0.0000    0.0000   -0.0000    0.0000    0.0000   -0.0000    0.0000    0.0000
    79 N2     4f3-      -0.0000    0.0000    0.0000    0.0000   -0.0000    0.0000    0.0000    0.0000    0.0000    0.0000
    80 N2     4f3-       0.0000    0.0000   -0.0000    0.0000   -0.0000    0.0000    0.0000   -0.0000   -0.0000    0.0000
    81 N2     4f2-       0.0000   -0.0000    0.0000    0.0000    0.0000    0.0000   -0.0000    0.0000   -0.0000    0.0000
    82 N2     4f2-      -0.0000    0.0000   -0.0000   -0.0000   -0.0000   -0.0000    0.0000    0.0000    0.0000    0.0000
    83 N2     4f1-      -0.0000    0.0037   -0.0039    0.0053   -0.0003   -0.0000    0.0004   -0.0000   -0.0000    0.0000
    84 N2     4f1-      -0.0004    0.0519   -0.0555    0.0344   -0.0020    0.0000   -0.0011   -0.0000    0.0000   -0.0000
    85 N2     4f0       -0.0000    0.0000    0.0000   -0.0000    0.0000   -0.0000    0.0000    0.0006    0.0011    0.0000
    86 N2     4f0        0.0000    0.0000    0.0000    0.0000    0.0000    0.0000   -0.0000   -0.0040   -0.0034   -0.0000
    87 N2     4f1+       0.0020    0.0039    0.0037    0.0003    0.0053   -0.0004   -0.0000   -0.0000   -0.0000    0.0010
    88 N2     4f1+       0.0217    0.0555    0.0519    0.0020    0.0344    0.0011    0.0000   -0.0000    0.0000   -0.0020
    89 N2     4f2+       0.0000   -0.0000   -0.0000   -0.0000    0.0000    0.0000    0.0000    0.0000   -0.0000    0.0000
    90 N2     4f2+      -0.0000    0.0000    0.0000    0.0000   -0.0000   -0.0000   -0.0000   -0.0000    0.0000    0.0000
    91 N2     4f3+      -0.0000    0.0000   -0.0000   -0.0000   -0.0000    0.0000   -0.0000   -0.0000   -0.0000    0.0000
    92 N2     4f3+       0.0000   -0.0000   -0.0000   -0.0000   -0.0000    0.0000   -0.0000   -0.0000    0.0000    0.0000
    93 X1     1s         0.0000   -0.0000   -0.0000   -0.0000   -0.0000   -0.0000    0.0000    0.0000    6.1169    0.0000
    94 X1     1s         0.0000    0.0000    0.0000    0.0000    0.0000    0.0000   -0.0000   -0.0000   -5.8804   -0.0000
    95 X1     1s         0.0000   -0.0000    0.0000   -0.0000   -0.0000   -0.0000    0.0000    0.0000    3.7446    0.0000
    96 X1     2px       -0.0000   -0.0000   -0.0000   -0.0000   -0.0000   -1.2604   -0.0118    0.0000   -0.0000    2.4685
    97 X1     2px        0.0000    0.0000    0.0000    0.0000    0.0000    2.4737    0.0232   -0.0000    0.0000   -3.9716
    98 X1     2px       -0.0000   -0.0000   -0.0000   -0.0000   -0.0000   -2.3277   -0.0218    0.0000   -0.0000    1.6461
    99 X1     2py       -0.0000   -0.0000    0.0000   -0.0000    0.0000   -0.0118    1.2604    0.0000   -0.0000    0.0008
   100 X1     2py        0.0000    0.0000   -0.0000    0.0000   -0.0000    0.0232   -2.4737   -0.0000    0.0000   -0.0014
   101 X1     2py       -0.0000   -0.0000    0.0000   -0.0000    0.0000   -0.0218    2.3277    0.0000   -0.0000    0.0006
   102 X1     2pz       -0.0000   -0.0000   -0.0000    0.0000    0.0000    0.0000   -0.0000    1.8673    0.0000   -0.0000
   103 X1     2pz        0.0000    0.0000    0.0000    0.0000    0.0000   -0.0000    0.0000   -2.8078   -0.0000    0.0000
   104 X1     2pz       -0.0000   -0.0000   -0.0000    0.0000    0.0000    0.0000   -0.0000    2.4294    0.0000   -0.0000
   105 X1     3d2-       0.0000    0.0000    0.0000    0.0000    0.0000   -0.0000    0.0000   -0.0000   -0.0000   -0.0000
   106 X1     3d2-      -0.0000   -0.0000   -0.0000   -0.0000    0.0000    0.0000   -0.0000    0.0000    0.0000    0.0000
   107 X1     3d2-       0.0000    0.0000    0.0000    0.0000   -0.0000   -0.0000    0.0000   -0.0000    0.0000   -0.0000
   108 X1     3d1-      -0.0141    3.1495   -3.3679    3.0893   -0.1810   -0.0000    0.0000   -0.0000   -0.0000   -0.0000
   109 X1     3d1-      -0.0721   11.4734  -12.2694    6.6665   -0.3906   -0.0000    0.0000   -0.0000   -0.0000   -0.0000
   110 X1     3d1-       0.0351   -2.0289    2.1696   -0.3091    0.0181   -0.0000   -0.0000    0.0000    0.0000    0.0000
   111 X1     3d0       -0.0000   -0.0000   -0.0000   -0.0000   -0.0000   -0.0000    0.0000    0.0000    0.4608    0.0000
   112 X1     3d0        0.0000    0.0000    0.0000    0.0000    0.0000   -0.0000    0.0000    0.0000    1.1675    0.0000
   113 X1     3d0       -0.0000   -0.0000   -0.0000   -0.0000   -0.0000    0.0000   -0.0000   -0.0000   -0.2626   -0.0000
   114 X1     3d1+       0.8386    3.3679    3.1495    0.1810    3.0893   -0.0000    0.0000   -0.0000   -0.0000    0.0000
   115 X1     3d1+       4.2975   12.2694   11.4734    0.3906    6.6665   -0.0000    0.0000   -0.0000   -0.0000    0.0000
   116 X1     3d1+      -2.0900   -2.1696   -2.0289   -0.0181   -0.3091    0.0000   -0.0000    0.0000    0.0000   -0.0000
   117 X1     3d2+      -0.0000    0.0000    0.0000   -0.0000    0.0000   -0.0000   -0.0000   -0.0000    0.0000   -0.0000
   118 X1     3d2+       0.0000   -0.0000   -0.0000    0.0000   -0.0000    0.0000    0.0000    0.0000   -0.0000    0.0000
   119 X1     3d2+      -0.0000    0.0000    0.0000   -0.0000    0.0000   -0.0000   -0.0000   -0.0000    0.0000   -0.0000


      Orbital                21        22        23        24        25        26
      Energy             0.1207    0.1218    0.1302    0.1346    0.1374    0.1374
      Occ. No.           0.0000    0.0000    0.0000    0.0000    0.0000    0.0000

     1 N1     1s        -0.0000   -0.0014    0.0035    0.0089    0.0000   -0.0000
     2 N1     1s         0.0000    0.0143   -0.0189    0.0450    0.0000    0.0000
     3 N1     1s         0.0000    0.0018   -0.0000    0.0049    0.0000    0.0000
     4 N1     1s         0.0000    0.1020    0.0817    0.4284   -0.0000   -0.0000
     5 N1     1s        -0.0000    3.2091    5.3633    3.4516   -0.0000   -0.0000
     6 N1     2px       -0.0000    0.0000    0.0000    0.0000    0.0000    0.0000
     7 N1     2px        0.0000   -0.0000   -0.0000    0.0000   -0.0000   -0.0000
     8 N1     2px       -0.0000   -0.0000    0.0000   -0.0000    0.0000    0.0000
     9 N1     2px        0.0001   -0.0000   -0.0000    0.0000   -0.0000   -0.0000
    10 N1     2py        0.0240    0.0000    0.0000    0.0000   -0.0000    0.0000
    11 N1     2py       -0.0138   -0.0000   -0.0000    0.0000    0.0000   -0.0000
    12 N1     2py        0.0530   -0.0000    0.0000   -0.0000   -0.0000    0.0000
    13 N1     2py       -0.3758   -0.0000   -0.0000    0.0000    0.0000   -0.0000
    14 N1     2pz        0.0000    0.0086   -0.0372    0.0119   -0.0000    0.0000
    15 N1     2pz        0.0000   -0.0001   -0.0106   -0.0225    0.0000    0.0000
    16 N1     2pz       -0.0000   -0.0285    0.1015    0.2089    0.0000    0.0000
    17 N1     2pz       -0.0000   -1.5634    6.3457    5.8021    0.0000    0.0000
    18 N1     3d2-       0.0000    0.0000   -0.0000   -0.0000    0.0001   -0.0019
    19 N1     3d2-      -0.0000   -0.0000    0.0000   -0.0000   -0.0005    0.0148
    20 N1     3d2-       0.0000   -0.0000   -0.0000    0.0000    0.0032   -0.0921
    21 N1     3d1-      -0.0007   -0.0000   -0.0000   -0.0000    0.0000   -0.0000
    22 N1     3d1-      -0.0021    0.0000    0.0000   -0.0000    0.0000   -0.0000
    23 N1     3d1-       0.0079    0.0000   -0.0000   -0.0000   -0.0000    0.0000
    24 N1     3d0       -0.0000    0.0000    0.0018    0.0007   -0.0000   -0.0000
    25 N1     3d0        0.0000   -0.0073   -0.0096   -0.0083   -0.0000   -0.0000
    26 N1     3d0       -0.0000    0.0470    0.0190   -0.1821   -0.0000   -0.0000
    27 N1     3d1+       0.0000   -0.0000   -0.0000   -0.0000   -0.0000   -0.0000
    28 N1     3d1+       0.0000    0.0000    0.0000   -0.0000   -0.0000   -0.0000
    29 N1     3d1+      -0.0000    0.0000   -0.0000   -0.0000    0.0000    0.0000
    30 N1     3d2+      -0.0000    0.0000    0.0000    0.0000   -0.0019   -0.0001
    31 N1     3d2+       0.0000   -0.0000   -0.0000   -0.0000    0.0148    0.0005
    32 N1     3d2+      -0.0000    0.0000    0.0000    0.0000   -0.0921   -0.0032
    33 N1     4f3-      -0.0000   -0.0000   -0.0000   -0.0000   -0.0000   -0.0000
    34 N1     4f3-      -0.0000    0.0000    0.0000    0.0000    0.0000    0.0000
    35 N1     4f2-      -0.0000   -0.0000   -0.0000    0.0000   -0.0000    0.0002
    36 N1     4f2-      -0.0000    0.0000    0.0000    0.0000   -0.0000    0.0006
    37 N1     4f1-       0.0010   -0.0000    0.0000   -0.0000   -0.0000    0.0000
    38 N1     4f1-      -0.0020   -0.0000    0.0000    0.0000    0.0000   -0.0000
    39 N1     4f0       -0.0000    0.0013    0.0014   -0.0008    0.0000    0.0000
    40 N1     4f0        0.0000   -0.0065    0.0009    0.0188    0.0000    0.0000
    41 N1     4f1+      -0.0000   -0.0000    0.0000   -0.0000    0.0000    0.0000
    42 N1     4f1+       0.0000   -0.0000    0.0000    0.0000   -0.0000   -0.0000
    43 N1     4f2+       0.0000    0.0000    0.0000   -0.0000    0.0002    0.0000
    44 N1     4f2+       0.0000   -0.0000   -0.0000   -0.0000    0.0006    0.0000
    45 N1     4f3+       0.0000    0.0000   -0.0000    0.0000   -0.0000    0.0000
    46 N1     4f3+       0.0000    0.0000    0.0000    0.0000    0.0000   -0.0000
    47 N2     1s        -0.0000    0.0014    0.0035    0.0089    0.0000   -0.0000
    48 N2     1s         0.0000   -0.0143   -0.0189    0.0450    0.0000    0.0000
    49 N2     1s         0.0000   -0.0018   -0.0000    0.0049   -0.0000    0.0000
    50 N2     1s         0.0000   -0.1020    0.0817    0.4284    0.0000    0.0000
    51 N2     1s        -0.0000   -3.2091    5.3633    3.4516    0.0000    0.0000
    52 N2     2px       -0.0000   -0.0000    0.0000    0.0000    0.0000    0.0000
    53 N2     2px        0.0000    0.0000   -0.0000    0.0000   -0.0000   -0.0000
    54 N2     2px       -0.0000    0.0000    0.0000   -0.0000    0.0000    0.0000
    55 N2     2px        0.0001    0.0000   -0.0000   -0.0000   -0.0000   -0.0000
    56 N2     2py        0.0240   -0.0000    0.0000    0.0000   -0.0000    0.0000
    57 N2     2py       -0.0138    0.0000   -0.0000    0.0000    0.0000   -0.0000
    58 N2     2py        0.0530    0.0000    0.0000   -0.0000   -0.0000    0.0000
    59 N2     2py       -0.3758    0.0000   -0.0000   -0.0000    0.0000   -0.0000
    60 N2     2pz       -0.0000    0.0086    0.0372   -0.0119    0.0000   -0.0000
    61 N2     2pz       -0.0000   -0.0001    0.0106    0.0225    0.0000    0.0000
    62 N2     2pz        0.0000   -0.0285   -0.1015   -0.2089    0.0000    0.0000
    63 N2     2pz        0.0000   -1.5634   -6.3457   -5.8021   -0.0000   -0.0000
    64 N2     3d2-       0.0000    0.0000   -0.0000    0.0000    0.0001   -0.0019
    65 N2     3d2-      -0.0000    0.0000    0.0000   -0.0000   -0.0005    0.0148
    66 N2     3d2-       0.0000   -0.0000   -0.0000    0.0000    0.0032   -0.0921
    67 N2     3d1-       0.0007   -0.0000    0.0000    0.0000   -0.0000    0.0000
    68 N2     3d1-       0.0021    0.0000   -0.0000   -0.0000   -0.0000    0.0000
    69 N2     3d1-      -0.0079    0.0000    0.0000    0.0000    0.0000   -0.0000
    70 N2     3d0       -0.0000   -0.0000    0.0018    0.0007    0.0000   -0.0000
    71 N2     3d0        0.0000    0.0073   -0.0096   -0.0083    0.0000    0.0000
    72 N2     3d0       -0.0000   -0.0470    0.0190   -0.1821    0.0000    0.0000
    73 N2     3d1+      -0.0000   -0.0000    0.0000    0.0000    0.0000    0.0000
    74 N2     3d1+      -0.0000    0.0000   -0.0000   -0.0000    0.0000    0.0000
    75 N2     3d1+       0.0000    0.0000    0.0000    0.0000   -0.0000   -0.0000
    76 N2     3d2+      -0.0000   -0.0000    0.0000    0.0000   -0.0019   -0.0001
    77 N2     3d2+       0.0000    0.0000   -0.0000   -0.0000    0.0148    0.0005
    78 N2     3d2+      -0.0000   -0.0000    0.0000    0.0000   -0.0921   -0.0032
    79 N2     4f3-      -0.0000    0.0000    0.0000    0.0000   -0.0000   -0.0000
    80 N2     4f3-      -0.0000   -0.0000   -0.0000   -0.0000    0.0000    0.0000
    81 N2     4f2-       0.0000   -0.0000   -0.0000    0.0000    0.0000   -0.0002
    82 N2     4f2-       0.0000    0.0000    0.0000    0.0000    0.0000   -0.0006
    83 N2     4f1-       0.0010    0.0000    0.0000   -0.0000   -0.0000    0.0000
    84 N2     4f1-      -0.0020    0.0000    0.0000    0.0000    0.0000   -0.0000
    85 N2     4f0        0.0000    0.0013   -0.0014    0.0008    0.0000    0.0000
    86 N2     4f0       -0.0000   -0.0065   -0.0009   -0.0188   -0.0000    0.0000
    87 N2     4f1+      -0.0000    0.0000    0.0000   -0.0000    0.0000    0.0000
    88 N2     4f1+       0.0000    0.0000    0.0000    0.0000   -0.0000   -0.0000
    89 N2     4f2+      -0.0000    0.0000    0.0000    0.0000   -0.0002   -0.0000
    90 N2     4f2+      -0.0000   -0.0000   -0.0000   -0.0000   -0.0006   -0.0000
    91 N2     4f3+       0.0000   -0.0000    0.0000   -0.0000   -0.0000    0.0000
    92 N2     4f3+       0.0000   -0.0000    0.0000    0.0000    0.0000   -0.0000
    93 X1     1s         0.0000    0.0000  -13.1002   -4.9050   -0.0000   -0.0000
    94 X1     1s        -0.0000   -0.0000    8.7093   -0.6532    0.0000    0.0000
    95 X1     1s         0.0000    0.0000   -2.9039    0.6421   -0.0000   -0.0000
    96 X1     2px       -0.0008    0.0000    0.0000   -0.0000    0.0000    0.0000
    97 X1     2px        0.0014   -0.0000   -0.0000    0.0000   -0.0000   -0.0000
    98 X1     2px       -0.0006    0.0000    0.0000   -0.0000    0.0000    0.0000
    99 X1     2py        2.4685    0.0000    0.0000   -0.0000   -0.0000    0.0000
   100 X1     2py       -3.9716   -0.0000   -0.0000    0.0000    0.0000   -0.0000
   101 X1     2py        1.6461    0.0000    0.0000   -0.0000   -0.0000    0.0000
   102 X1     2pz       -0.0000    3.5716   -0.0000   -0.0000   -0.0000   -0.0000
   103 X1     2pz        0.0000   -4.4777    0.0000    0.0000   -0.0000    0.0000
   104 X1     2pz       -0.0000    1.7511    0.0000    0.0000    0.0000   -0.0000
   105 X1     3d2-      -0.0000    0.0000    0.0000   -0.0000   -0.0197    0.5641
   106 X1     3d2-       0.0000   -0.0000   -0.0000    0.0000    0.0439   -1.2554
   107 X1     3d2-      -0.0000    0.0000    0.0000   -0.0000   -0.0596    1.7051
   108 X1     3d1-       0.0000    0.0000    0.0000   -0.0000   -0.0000    0.0000
   109 X1     3d1-       0.0000    0.0000    0.0000   -0.0000   -0.0000    0.0000
   110 X1     3d1-      -0.0000   -0.0000   -0.0000    0.0000    0.0000   -0.0000
   111 X1     3d0        0.0000    0.0000   -1.0294   -0.4838   -0.0000   -0.0000
   112 X1     3d0        0.0000    0.0000   -3.4717   -3.8404   -0.0000   -0.0000
   113 X1     3d0       -0.0000   -0.0000    1.0614    2.0024    0.0000    0.0000
   114 X1     3d1+       0.0000    0.0000    0.0000   -0.0000    0.0000    0.0000
   115 X1     3d1+       0.0000    0.0000    0.0000   -0.0000    0.0000    0.0000
   116 X1     3d1+      -0.0000   -0.0000   -0.0000    0.0000   -0.0000    0.0000
   117 X1     3d2+       0.0000   -0.0000   -0.0000   -0.0000    0.5641    0.0197
   118 X1     3d2+      -0.0000    0.0000    0.0000    0.0000   -1.2554   -0.0439
   119 X1     3d2+       0.0000   -0.0000   -0.0000   -0.0000    1.7051    0.0596
--

      Von Neumann Entropy (Root  1) =  0.92019


      Mulliken population analysis for root number:  1
      -----------------------------------------------


++    Molecular charges:
      ------------------

      Mulliken charges per centre and basis function type
      ---------------------------------------------------

                N1      N2      X1    
      1s       4.0717  4.0717 -0.1117
      2px      1.7945  1.7945  0.0060
      2pz      0.9991  0.9991  0.0019
      2py      0.9635  0.9635  0.0060
      3d2+     0.0000  0.0000 -0.0000
      3d1+     0.0106  0.0106 -0.6201
      3d0      0.0011  0.0011 -0.0377
      3d1-     0.0262  0.0262  0.0103
      3d2-     0.0000  0.0000 -0.0000
      4f3+     0.0000  0.0000  0.0000
      4f2+    -0.0000 -0.0000  0.0000
      4f1+     0.0019  0.0019  0.0000
      4f0      0.0019  0.0019  0.0000
      4f1-     0.0022  0.0022  0.0000
      4f2-    -0.0000 -0.0000  0.0000
      4f3-     0.0000  0.0000  0.0000
      Total    7.8726  7.8726 -0.7453

      N-E     -0.8726 -0.8726  0.7453

      Total electronic charge=   15.000000

      Total            charge=   -1.000000
--



      Expectation values of various properties for root number:  1
      -----------------------------------------------------------


++    Molecular properties:
      ---------------------

      Charge (e):
                      =   -1.0000
      Dipole Moment (Debye):
      Origin of the operator (Ang)=    0.0000    0.0000    0.0000
                   X=  3.8353E-07               Y= -1.8161E-09               Z=  1.8984E-11           Total=  3.8354E-07
      Center of Charge (Ang)
                     X=   -0.00000008               Y=    0.00000000               Z=   -0.00000000
      Quadrupole Moment (Debye*Ang):
      Origin of the operator (Ang)=    0.0000    0.0000    0.0000
                  XX= -8.7899E+01              XY= -4.3852E-01              XZ= -7.7241E-12              YY= -3.6344E+01
                  YZ= -5.9188E-12              ZZ= -9.2838E+01
      In traceless form (Debye*Ang)
                  XX= -2.3308E+01              XY= -6.5778E-01              XZ= -1.1586E-11              YY=  5.4024E+01
                  YZ= -8.8782E-12              ZZ= -3.0716E+01
--


      Mulliken spin population analysis for root number:  1
      ---------------------------------------------------


++    Molecular charges:
      ------------------

      Mulliken spin population per centre and basis function type
      ---------------------------------------------------

                N1      N2      X1    
      1s      -0.0000 -0.0000 -0.0000
      2px      0.8311  0.8311  0.0000
      2pz      0.0000  0.0000  0.0000
      2py      0.0001  0.0001 -0.0000
      3d2+     0.0000  0.0000 -0.0000
      3d1+    -0.0156 -0.0156 -0.6304
      3d0     -0.0000 -0.0000 -0.0000
      3d1-    -0.0000 -0.0000 -0.0000
      3d2-     0.0000  0.0000  0.0000
      4f3+     0.0000  0.0000  0.0000
      4f2+    -0.0000 -0.0000  0.0000
      4f1+    -0.0004 -0.0004  0.0000
      4f0     -0.0000 -0.0000  0.0000
      4f1-     0.0000  0.0000  0.0000
      4f2-    -0.0000 -0.0000  0.0000
      4f3-     0.0000  0.0000  0.0000
      Total    0.8152  0.8152 -0.6305

      Total electronic spin=    1.000000
--


      Von Neumann Entropy (Root  2) =  0.92019


      Mulliken population analysis for root number:  2
      -----------------------------------------------


++    Molecular charges:
      ------------------

      Mulliken charges per centre and basis function type
      ---------------------------------------------------

                N1      N2      X1    
      1s       4.0717  4.0717 -0.1117
      2px      0.9635  0.9635  0.0060
      2pz      0.9991  0.9991  0.0019
      2py      1.7945  1.7945  0.0060
      3d2+     0.0000  0.0000 -0.0000
      3d1+     0.0262  0.0262  0.0103
      3d0      0.0011  0.0011 -0.0377
      3d1-     0.0106  0.0106 -0.6201
      3d2-     0.0000  0.0000 -0.0000
      4f3+     0.0000  0.0000  0.0000
      4f2+    -0.0000 -0.0000  0.0000
      4f1+     0.0022  0.0022  0.0000
      4f0      0.0019  0.0019  0.0000
      4f1-     0.0019  0.0019  0.0000
      4f2-    -0.0000 -0.0000  0.0000
      4f3-     0.0000  0.0000  0.0000
      Total    7.8726  7.8726 -0.7453

      N-E     -0.8726 -0.8726  0.7453

      Total electronic charge=   15.000000

      Total            charge=   -1.000000
--



      Expectation values of various properties for root number:  2
      -----------------------------------------------------------


++    Molecular properties:
      ---------------------

      Charge (e):
                      =   -1.0000
      Dipole Moment (Debye):
      Origin of the operator (Ang)=    0.0000    0.0000    0.0000
                   X= -1.2060E-08               Y=  1.8571E-07               Z= -3.2513E-11           Total=  1.8610E-07
      Center of Charge (Ang)
                     X=    0.00000000               Y=   -0.00000004               Z=    0.00000000
      Quadrupole Moment (Debye*Ang):
      Origin of the operator (Ang)=    0.0000    0.0000    0.0000
                  XX= -3.6344E+01              XY=  4.3852E-01              XZ= -1.2400E-11              YY= -8.7899E+01
                  YZ=  2.7907E-11              ZZ= -9.2838E+01
      In traceless form (Debye*Ang)
                  XX=  5.4024E+01              XY=  6.5778E-01              XZ= -1.8600E-11              YY= -2.3308E+01
                  YZ=  4.1861E-11              ZZ= -3.0716E+01
--


      Mulliken spin population analysis for root number:  2
      ---------------------------------------------------


++    Molecular charges:
      ------------------

      Mulliken spin population per centre and basis function type
      ---------------------------------------------------

                N1      N2      X1    
      1s      -0.0000 -0.0000 -0.0000
      2px      0.0001  0.0001 -0.0000
      2pz      0.0000  0.0000  0.0000
      2py      0.8311  0.8311  0.0000
      3d2+     0.0000  0.0000  0.0000
      3d1+    -0.0000 -0.0000 -0.0000
      3d0     -0.0000 -0.0000  0.0000
      3d1-    -0.0156 -0.0156 -0.6304
      3d2-     0.0000  0.0000 -0.0000
      4f3+     0.0000  0.0000  0.0000
      4f2+    -0.0000 -0.0000  0.0000
      4f1+     0.0000  0.0000  0.0000
      4f0     -0.0000 -0.0000  0.0000
      4f1-    -0.0004 -0.0004  0.0000
      4f2-    -0.0000 -0.0000  0.0000
      4f3-     0.0000  0.0000  0.0000
      Total    0.8152  0.8152 -0.6305

      Total electronic spin=    1.000000
--


      Von Neumann Entropy (Root  3) =  0.89431


      Mulliken population analysis for root number:  3
      -----------------------------------------------


++    Molecular charges:
      ------------------

      Mulliken charges per centre and basis function type
      ---------------------------------------------------

                N1      N2      X1    
      1s       4.0717  4.0717 -0.1117
      2px      0.9620  0.9620  0.0060
      2pz      0.9991  0.9991  0.0019
      2py     -1.6573 -1.6573  0.0060
      3d2+     0.0000  0.0000 -0.0000
      3d1+     0.0262  0.0262  0.0138
      3d0      0.0011  0.0011 -0.0377
      3d1-     0.1148  0.1148  6.0650
      3d2-     0.0000  0.0000 -0.0000
      4f3+     0.0000  0.0000  0.0000
      4f2+    -0.0000 -0.0000  0.0000
      4f1+     0.0022  0.0022  0.0000
      4f0      0.0019  0.0019  0.0000
      4f1-     0.0066  0.0066  0.0000
      4f2-    -0.0000 -0.0000  0.0000
      4f3-     0.0000  0.0000  0.0000
      Total    4.5283  4.5283  5.9433

      N-E      2.4717  2.4717 -5.9433

      Total electronic charge=   15.000000

      Total            charge=   -1.000000
--



      Expectation values of various properties for root number:  3
      -----------------------------------------------------------


++    Molecular properties:
      ---------------------

      Charge (e):
                      =   -1.0000
      Dipole Moment (Debye):
      Origin of the operator (Ang)=    0.0000    0.0000    0.0000
                   X= -1.5606E-08               Y=  2.0940E-07               Z=  4.8822E-10           Total=  2.0998E-07
      Center of Charge (Ang)
                     X=    0.00000000               Y=   -0.00000004               Z=   -0.00000000
      Quadrupole Moment (Debye*Ang):
      Origin of the operator (Ang)=    0.0000    0.0000    0.0000
                  XX= -2.5891E+01              XY=  7.5137E-01              XZ=  1.1684E-11              YY= -5.6479E+01
                  YZ= -8.9910E-10              ZZ= -5.4953E+01
      In traceless form (Debye*Ang)
                  XX=  2.9825E+01              XY=  1.1271E+00              XZ=  1.7526E-11              YY= -1.6057E+01
                  YZ= -1.3487E-09              ZZ= -1.3768E+01
--


      Mulliken spin population analysis for root number:  3
      ---------------------------------------------------


++    Molecular charges:
      ------------------

      Mulliken spin population per centre and basis function type
      ---------------------------------------------------

[...]
           9  ( 1:1:   1/   9)   022u000000       0.053480       0.002860
          76  ( 2:1:   1/   1)   22000u0000       0.096696       0.009350
          77  ( 2:1:   2/   1)   220000u000      -0.555453       0.308528
          78  ( 2:1:   3/   1)   2200000u00      -0.567231       0.321751
          80  ( 2:1:   5/   1)   220000000u       0.401067       0.160854
         102  ( 2:1:   2/   6)   022000u000       0.076645       0.005874
         103  ( 2:1:   3/   6)   0220000u00       0.078269       0.006126
         105  ( 2:1:   5/   6)   022000000u      -0.055256       0.003053
         122  ( 2:1:   2/  10)   udud00u000       0.065818       0.004332
         123  ( 2:1:   3/  10)   udud000u00       0.067217       0.004518
         132  ( 2:1:   2/  12)   uudd00u000      -0.055491       0.003079
         133  ( 2:1:   3/  12)   uudd000u00      -0.056668       0.003211
         147  ( 2:1:   2/  15)   200200u000       0.076634       0.005873
         148  ( 2:1:   3/  15)   2002000u00       0.078263       0.006125
         150  ( 2:1:   5/  15)   200200000u      -0.052975       0.002806

  The CI coefficients for the MIXED state nr.   6
--------------------------------------------------------------------------------
 CI COEFFICIENTS LARGER THAN  0.50D-01
  Occupation of active orbitals, and spin coupling
  of open shells. (u,d: Spin up or down).
  SGUGA info is (Midvert:IsyUp:UpperWalk/LowerWalk)
        Conf  SGUGA info        Occupation     Coefficient         Weight
           1  ( 1:1:   1/   1)   22u0000000       0.362518       0.131419
           4  ( 1:1:   1/   4)   220u000000       0.085529       0.007315
          15  ( 1:1:   1/  15)   20u2000000       0.053480       0.002860
          21  ( 1:1:   1/  21)   2200u00000      -0.096696       0.009350
          77  ( 2:1:   2/   1)   220000u000       0.567231       0.321751
          78  ( 2:1:   3/   1)   2200000u00      -0.555453       0.308528
          79  ( 2:1:   4/   1)   22000000u0      -0.401066       0.160854
         102  ( 2:1:   2/   6)   022000u000      -0.078263       0.006125
         103  ( 2:1:   3/   6)   0220000u00       0.076634       0.005873
         104  ( 2:1:   4/   6)   02200000u0       0.052975       0.002806
         122  ( 2:1:   2/  10)   udud00u000      -0.067217       0.004518
         123  ( 2:1:   3/  10)   udud000u00       0.065818       0.004332
         132  ( 2:1:   2/  12)   uudd00u000       0.056668       0.003211
         133  ( 2:1:   3/  12)   uudd000u00      -0.055491       0.003079
         147  ( 2:1:   2/  15)   200200u000      -0.078269       0.006126
         148  ( 2:1:   3/  15)   2002000u00       0.076645       0.005874
         149  ( 2:1:   4/  15)   20020000u0       0.055256       0.003053

  The CI coefficients for the MIXED state nr.   7
--------------------------------------------------------------------------------
 CI COEFFICIENTS LARGER THAN  0.50D-01
  Occupation of active orbitals, and spin coupling
  of open shells. (u,d: Spin up or down).
  SGUGA info is (Midvert:IsyUp:UpperWalk/LowerWalk)
        Conf  SGUGA info        Occupation     Coefficient         Weight
           4  ( 1:1:   1/   4)   220u000000      -0.194543       0.037847
          77  ( 2:1:   2/   1)   220000u000       0.353066       0.124655
          78  ( 2:1:   3/   1)   2200000u00       0.356486       0.127083
          80  ( 2:1:   5/   1)   220000000u       0.801754       0.642810
         105  ( 2:1:   5/   6)   022000000u      -0.110339       0.012175
         125  ( 2:1:   5/  10)   udud00000u      -0.094413       0.008914
         135  ( 2:1:   5/  12)   uudd00000u       0.079138       0.006263
         150  ( 2:1:   5/  15)   200200000u      -0.109373       0.011962

  The CI coefficients for the MIXED state nr.   8
--------------------------------------------------------------------------------
 CI COEFFICIENTS LARGER THAN  0.50D-01
  Occupation of active orbitals, and spin coupling
  of open shells. (u,d: Spin up or down).
  SGUGA info is (Midvert:IsyUp:UpperWalk/LowerWalk)
        Conf  SGUGA info        Occupation     Coefficient         Weight
           1  ( 1:1:   1/   1)   22u0000000      -0.194543       0.037847
          77  ( 2:1:   2/   1)   220000u000       0.356486       0.127082
          78  ( 2:1:   3/   1)   2200000u00      -0.353066       0.124655
          79  ( 2:1:   4/   1)   22000000u0       0.801754       0.642810
         104  ( 2:1:   4/   6)   02200000u0      -0.109373       0.011962
         124  ( 2:1:   4/  10)   udud0000u0      -0.094413       0.008914
         134  ( 2:1:   4/  12)   uudd0000u0       0.079138       0.006263
         149  ( 2:1:   4/  15)   20020000u0      -0.110339       0.012175

  The CI coefficients for the MIXED state nr.   9
--------------------------------------------------------------------------------
 CI COEFFICIENTS LARGER THAN  0.50D-01
  Occupation of active orbitals, and spin coupling
  of open shells. (u,d: Spin up or down).
  SGUGA info is (Midvert:IsyUp:UpperWalk/LowerWalk)
        Conf  SGUGA info        Occupation     Coefficient         Weight
          11  ( 1:1:   1/  11)   u2ud000000      -0.142100       0.020192
          13  ( 1:1:   1/  13)   2u02000000      -0.164248       0.026977
         331  ( 3:1:   1/   2)   u2u00d0000      -0.669693       0.448489
         341  ( 3:1:   1/   4)   2u0u0d0000      -0.664035       0.440943
         376  ( 3:1:   1/  11)   0u2u0d0000      -0.125494       0.015749
         391  ( 3:1:   1/  14)   u0u20d0000      -0.130267       0.016969
         406  ( 3:1:   1/  17)   u200ud0000       0.085464       0.007304
         551  ( 4:1:   1/   1)   2u00020000       0.105618       0.011155

  The CI coefficients for the MIXED state nr.  10
--------------------------------------------------------------------------------
 CI COEFFICIENTS LARGER THAN  0.50D-01
  Occupation of active orbitals, and spin coupling
  of open shells. (u,d: Spin up or down).
  SGUGA info is (Midvert:IsyUp:UpperWalk/LowerWalk)
        Conf  SGUGA info        Occupation     Coefficient         Weight
           3  ( 1:1:   1/   3)   u220000000      -0.164248       0.026977
           5  ( 1:1:   1/   5)   2udu000000      -0.127323       0.016211
          10  ( 1:1:   1/  10)   2uud000000      -0.063670       0.004054
          42  ( 1:1:   1/  42)   u2u0d00000      -0.664035       0.440943
          44  ( 1:1:   1/  44)   2u0ud00000      -0.669693       0.448489
          51  ( 1:1:   1/  51)   0u2ud00000      -0.130267       0.016969
          54  ( 1:1:   1/  54)   u0u2d00000      -0.125494       0.015749
          57  ( 1:1:   1/  57)   u200200000       0.105618       0.011155
         176  ( 2:1:   1/  21)   2u00du0000       0.074390       0.005534

--

--- Stop Module: caspt2 at Tue Apr 28 18:29:38 2020 /rc=_RC_ALL_IS_WELL_ ---
*** files: xmldump
    saved to directory /home/gayverjr/OpenCAP/molcas_test/N2
--- Module caspt2 spent 3 minutes 27 seconds ---

--- Start Module: rassi at Tue Apr 28 18:29:38 2020 ---

()()()()()()()()()()()()()()()()()()()()()()()()()()()()()()()()()()()()()()()()()()()()()()()()()()

                                               &RASSI

                                   only a single process is used
                       available to each process: 20 GB of memory, 16 threads
()()()()()()()()()()()()()()()()()()()()()()()()()()()()()()()()()()()()()()()()()()()()()()()()()()


      ********************************************************************************
      *                                                                              *
      *                             General data section                             *
      *                                                                              *
      ********************************************************************************

   Specific data for JOBIPH file JOBIPH                                                                                                                          
   -------------------------------------

   Header from SEWARD:
                                                                               
        Integrals generated by seward 4.2.0  , Tue Apr 28 18:25:02 2020        

   CASSCF title (first line only):
       cas 3,9 test                                                            

   STATE IRREP:                            1
   SPIN MULTIPLICITY:                      2
   ACTIVE ELECTRONS:                       5
   MAX RAS1 HOLES:                         0
   MAX RAS3 ELECTRONS:                     0
   NR OF CONFIG:                        3300

  Info: creating TDMFILE
        estimated file size                 14935 kB
        TDMs in AO format


   The following data are common to all the states:
   ------------------------------------------------
   (note: frozen counts as inactive, deleted as secondary)

      Nr of irreps: 1

                 Total     No./Irrep 
      Irrep                  1
                             a

      INACTIVE       5       5
      ACTIVE        10      10
      SECONDARY    104     104
      BASIS        119     119

      RAS1           0       0
      RAS2          10      10
      RAS3           0       0

        MATRIX ELEMENTS WILL BE COMPUTED FOR THE FOLLOWING ONE-ELECTRON OPERATORS, UNLESS ZERO BY SYMMETRY.
   (Herm=Hermitian, Anti=Antihermitian, Sing=Singlet operator, Trip=Triplet operator)
     MLTPL  0   1 (HERMSING)     MLTPL  1   1 (HERMSING)     MLTPL  1   2 (HERMSING)
     MLTPL  1   3 (HERMSING)     MLTPL  2   1 (HERMSING)     MLTPL  2   2 (HERMSING)
     MLTPL  2   3 (HERMSING)     MLTPL  2   4 (HERMSING)     MLTPL  2   5 (HERMSING)
     MLTPL  2   6 (HERMSING)     VELOCITY   1 (ANTISING)     VELOCITY   2 (ANTISING)
     VELOCITY   3 (ANTISING)     ANGMOM     1 (ANTISING)     ANGMOM     2 (ANTISING)
     ANGMOM     3 (ANTISING)     MLTPV  2   1 (ANTISING)     MLTPV  2   2 (ANTISING)
     MLTPV  2   3 (ANTISING)     MLTPV  2   4 (ANTISING)     MLTPV  2   5 (ANTISING)
     MLTPV  2   6 (ANTISING)

       EIGENSTATES OF A SPIN-FREE HAMILTONIAN WILL BE COMPUTED BASED ON:

  a (effective) Hamiltonian matrix that was read from the wavefunction file(s).
  SO coupling elements will be added.
       EIGENSTATES OF SPIN-ORBIT HAMILTONIAN WILL BE COMPUTED
        MATRIX ELEMENTS OVER SPIN EIGENSTATES FOR:
     MLTPL  0   1 (HERMSING)     MLTPL  1   1 (HERMSING)     MLTPL  1   2 (HERMSING)
     MLTPL  1   3 (HERMSING)     MLTPL  2   1 (HERMSING)     MLTPL  2   2 (HERMSING)
     MLTPL  2   3 (HERMSING)     MLTPL  2   4 (HERMSING)     MLTPL  2   5 (HERMSING)
     MLTPL  2   6 (HERMSING)     VELOCITY   1 (ANTISING)     VELOCITY   2 (ANTISING)
     VELOCITY   3 (ANTISING)     ANGMOM     1 (ANTISING)     ANGMOM     2 (ANTISING)
     ANGMOM     3 (ANTISING)     MLTPV  2   1 (ANTISING)     MLTPV  2   2 (ANTISING)
     MLTPV  2   3 (ANTISING)     MLTPV  2   4 (ANTISING)     MLTPV  2   5 (ANTISING)
     MLTPV  2   6 (ANTISING)

  Nr of states:                   10

   State:        1   2   3   4   5   6   7   8   9  10
  JobIph:        1   1   1   1   1   1   1   1   1   1
 Root nr:        1   2   3   4   5   6   7   8   9  10

  HAMILTONIAN MATRIX FOR THE ORIGINAL STATES:

  Diagonal, with energies
   -109.30520783   -109.30520783   -109.24071629   -109.24071627   -109.21780898
   -109.21780901   -109.07214155   -109.07214165   -109.02989110   -109.02989153

      OVERLAP MATRIX FOR THE ORIGINAL STATES:

  Diagonal, with elements
      1.00000000      1.00000000      1.00000000      1.00000000      1.00000000
      1.00000000      1.00000000      1.00000000      1.00000000      1.00000000

::    RASSI State    1     Total energy:   -109.30520783
::    RASSI State    2     Total energy:   -109.30520783
::    RASSI State    3     Total energy:   -109.24071629
::    RASSI State    4     Total energy:   -109.24071627
::    RASSI State    5     Total energy:   -109.21780898
::    RASSI State    6     Total energy:   -109.21780901
::    RASSI State    7     Total energy:   -109.07214155
::    RASSI State    8     Total energy:   -109.07214165
::    RASSI State    9     Total energy:   -109.02989110
::    RASSI State   10     Total energy:   -109.02989153



      ****************************************************************************************************
      *                                                                                                  *
      *                                         Spin-free section                                        *
      *                                                                                                  *
      *                 Note: index according to input order, order according to energy.                 *
      *                                                                                                  *
      ****************************************************************************************************



  SPIN-FREE ENERGIES:
  (Shifted by EMIN (a.u.) =       -109.3052078326)

 SF State       Relative EMIN(au)   Rel lowest level(eV)    D:o, cm**(-1)

     1             0.0000000000        0.0000000000              0.0000
     2             0.0000000000        0.0000000000              0.0000
     3             0.0644915380        1.7549041513          14154.2565
     4             0.0644915645        1.7549048725          14154.2624
     6             0.0873988256        2.3782431996          19181.8250
     5             0.0873988493        2.3782438452          19181.8302
     8             0.2330661857        6.3420540000          51152.1152
     7             0.2330662783        6.3420565211          51152.1355
    10             0.2753163057        7.4917383356          60424.9447
     9             0.2753167284        7.4917498357          60425.0375

++ Dipole transition strengths (spin-free states):
   -----------------------------------------------
     for osc. strength at least  1.00000000E-05

      From   To        Osc. strength     Einstein coefficients Ax, Ay, Az (sec-1)    Total A (sec-1)
     -----------------------------------------------------------------------------------------------
         3    9       8.30855079E-05  4.56946009E-18  6.84738687E-17  1.18653667E+05  1.18653667E+05
         4   10       8.30853309E-05  7.78991177E-17  1.10859174E-18  1.18652909E+05  1.18652909E+05
         6    9       2.36537034E-04  7.07000372E-18  2.10016364E-16  2.68377650E+05  2.68377650E+05
         5   10       2.36536473E-04  2.54371756E-16  1.09189679E-18  2.68375737E+05  2.68375737E+05
         8   10       1.50929259E-05  4.40335268E-19  1.31144386E-20  8.65645784E+02  8.65645784E+02
         7    9       1.50930438E-05  3.36654950E-21  1.38677867E-19  8.65666067E+02  8.65666067E+02
     -----------------------------------------------------------------------------------------------
--

++ Velocity transition strengths (spin-free states):
   -------------------------------------------------
     for osc. strength at least  1.00000000E-05

      From   To        Osc. strength     Einstein coefficients Ax, Ay, Az (sec-1)    Total A (sec-1)
     -----------------------------------------------------------------------------------------------
         3    9       2.16810587E-04  3.68501433E-17  5.37300099E-17  3.09625250E+05  3.09625250E+05
         4   10       2.16811048E-04  1.49540036E-16  1.45333919E-17  3.09624591E+05  3.09624591E+05
         6    9       8.07546079E-04  6.07438737E-17  3.41895567E-17  9.16251104E+05  9.16251104E+05
         5   10       8.07547997E-04  1.34163555E-16  2.51687882E-17  9.16248928E+05  9.16248928E+05
         8   10       1.17418556E-03  7.96280434E-16  1.82778207E-19  6.73447140E+04  6.73447140E+04
         7    9       1.17417639E-03  2.45454005E-18  4.63918415E-16  6.73452400E+04  6.73452400E+04
     -----------------------------------------------------------------------------------------------
--

++ Length and velocity gauge comparison (spin-free states):
   --------------------------------------------------------

 --------------------------------------------------
 A comparison between the dipole oscillator strengths in 
 length and velocity gauge will be performed

 All dipole oscillator differences above the tolerance of   0.10000000000000001       will be printed 

 Due to basis set deficiency these oscillator may be problematic 

 The tolerance is defined as ABS(1-O_l/O_v) 
 O_l : dipole oscillator strength in length gauge
 O_p : dipole oscillator strength in velocity gauge
 --------------------------------------------------

  Problematic transitions have been found

      From   To       Difference (%) Osc. st. (len.) Osc. st. (vel.)
     ---------------------------------------------------------------
         3    9            61.678298  8.30855079E-05  2.16810587E-04
         4   10            61.678461  8.30853309E-05  2.16811048E-04
         6    9            70.709159  2.36537034E-04  8.07546079E-04
         5   10            70.709299  2.36536473E-04  8.07547997E-04
         8   10            98.714605  1.50929259E-05  1.17418556E-03
         7    9            98.714585  1.50930438E-05  1.17417639E-03
     ---------------------------------------------------------------

 Number of problematic transitions =                     6

--

 Electric-dipole - electric-octupole not included
 Electric-dipole - magnetic-quadrupole not included


      ****************************************************************************************************
      *                                                                                                  *
      *                                    Special properties section                                    *
      *                                                                                                  *
      ****************************************************************************************************


++ I/O STATISTICS
 
  I. General I/O information
  - - - - - - - - - - - - - - - - - - - - - - - - - - - - - - - - - - - - - - - - - - -
  Unit  Name          Flsize      Write/Read            MBytes           Write/Read
                      (MBytes)       Calls              In/Out           Time, sec.
  - - - - - - - - - - - - - - - - - - - - - - - - - - - - - - - - - - - - - - - - - - -
   1  SCRATCH           0.41 .      10/      55 .      0.4/      2.3 .       0/       0
   2  ANNI              0.00 .       0/       0 .      0.0/      0.0 .       0/       0
   3  RUNFILE          13.56 .     182/    3368 .      1.3/     24.4 .       0/       0
   4  ONEINT            2.94 .       0/   11001 .      0.0/   3392.7 .       0/       0
   5  JOBIPH            4.11 .       0/      98 .      0.0/      1.9 .       0/       0
   6  TDMFILE          17.89 .     165/     110 .     17.8/     11.9 .       0/       0
  - - - - - - - - - - - - - - - - - - - - - - - - - - - - - - - - - - - - - - - - - - -
   *  TOTAL            38.90 .     357/   14632 .     19.5/   3433.1 .       0/       0
  - - - - - - - - - - - - - - - - - - - - - - - - - - - - - - - - - - - - - - - - - - -
 
  II. I/O Access Patterns
  - - - - - - - - - - - - - - - - - - - -
  Unit  Name               % of random
                         Write/Read calls
  - - - - - - - - - - - - - - - - - - - -
   1  SCRATCH             90.0/ 100.0
   2  ANNI                 0.0/   0.0
   3  RUNFILE             28.6/  10.8
   4  ONEINT               0.0/  32.9
   5  JOBIPH               0.0/  75.5
   6  TDMFILE             99.4/ 100.0
  - - - - - - - - - - - - - - - - - - - -
--
--- Stop Module: rassi at Tue Apr 28 18:29:39 2020 /rc=_RC_ALL_IS_WELL_ ---
*** files: mscaspt2.rassi.h5 xmldump
    saved to directory /home/gayverjr/OpenCAP/molcas_test/N2
--- Module rassi spent 1 second ---

    Timing: Wall=278.87 User=2285.43 System=100.56
