Jobname.Temp
SP        R                             6-31G(d)            
Number of atoms                            I                2
Charge                                     I                0
Multiplicity                               I                1
Number of electrons                        I               14
Number of alpha electrons                  I                7
Number of beta electrons                   I                7
Atomic numbers                             I   N=           2
           7           7
Current cartesian coordinates              R   N=           6
  0.00000000E+00  0.00000000E+00  1.03900000E+00  0.00000000E+00  0.00000000E+00
 -1.03900000E+00
Nuclear charges                            R   N=           2
  7.00000000E+00  7.00000000E+00
Number of basis functions                  I               28
Number of contracted shells                I                8
Number of primitive shells                 I               22
Highest angular momentum                   I                2
Largest degree of contraction              I                6
Shell types                                I   N=           8
           0          -1          -1          -2           0          -1
          -1          -2
Number of primitives per shell             I   N=           8
           6           3           1           1           6           3
           1           1
Shell to atom map                          I   N=           8
           1           1           1           1           2           2
           2           2
Primitive exponents                        R   N=          22
  4.17351100E+03  6.27457900E+02  1.42902100E+02  4.02343300E+01  1.28202100E+01
  4.39043700E+00  1.16263580E+01  2.71628000E+00  7.72218000E-01  2.12031300E-01
  8.00000000E-01  4.17351100E+03  6.27457900E+02  1.42902100E+02  4.02343300E+01
  1.28202100E+01  4.39043700E+00  1.16263580E+01  2.71628000E+00  7.72218000E-01
  2.12031300E-01  8.00000000E-01
Contraction coefficients                   R   N=          22
  1.83479944E-03  1.39949958E-02  6.85869792E-02  2.32240930E-01  4.69069858E-01
  3.60454891E-01 -1.14961023E-01 -1.69118034E-01  1.14585223E+00  1.00000000E+00
  1.00000000E+00  1.83479944E-03  1.39949958E-02  6.85869792E-02  2.32240930E-01
  4.69069858E-01  3.60454891E-01 -1.14961023E-01 -1.69118034E-01  1.14585223E+00
  1.00000000E+00  1.00000000E+00
P(S=P) Contraction coefficients            R   N=          22
  0.00000000E+00  0.00000000E+00  0.00000000E+00  0.00000000E+00  0.00000000E+00
  0.00000000E+00  6.75800232E-02  3.23907111E-01  7.40895255E-01  1.00000000E+00
  0.00000000E+00  0.00000000E+00  0.00000000E+00  0.00000000E+00  0.00000000E+00
  0.00000000E+00  0.00000000E+00  6.75800232E-02  3.23907111E-01  7.40895255E-01
  1.00000000E+00  0.00000000E+00
Coordinates of each shell                  R   N=          24
  0.00000000E+00  0.00000000E+00  1.03900000E+00  0.00000000E+00  0.00000000E+00
  1.03900000E+00  0.00000000E+00  0.00000000E+00  1.03900000E+00  0.00000000E+00
  0.00000000E+00  1.03900000E+00  0.00000000E+00  0.00000000E+00 -1.03900000E+00
  0.00000000E+00  0.00000000E+00 -1.03900000E+00  0.00000000E+00  0.00000000E+00
 -1.03900000E+00  0.00000000E+00  0.00000000E+00 -1.03900000E+00
Overlap Matrix                             R   N=         406
  1.00000000E+00  2.22215399E-01  1.00000000E+00  0.00000000E+00  0.00000000E+00
  1.00000000E+00  0.00000000E+00  0.00000000E+00  0.00000000E+00  1.00000000E+00
  2.67205579E-17 -1.99446504E-16  0.00000000E+00  0.00000000E+00  1.00000000E+00
  1.71868983E-01  7.75506703E-01  0.00000000E+00  0.00000000E+00  0.00000000E+00
  1.00000000E+00  0.00000000E+00  0.00000000E+00  5.19295399E-01  0.00000000E+00
  0.00000000E+00  0.00000000E+00  1.00000000E+00  0.00000000E+00  0.00000000E+00
  0.00000000E+00  5.19295399E-01  0.00000000E+00  0.00000000E+00  0.00000000E+00
  1.00000000E+00  3.19194175E-17  0.00000000E+00  0.00000000E+00  0.00000000E+00
  5.19295399E-01  2.04489122E-16  0.00000000E+00  0.00000000E+00  1.00000000E+00
  0.00000000E+00  0.00000000E+00  0.00000000E+00  0.00000000E+00 -5.23221226E-18
  0.00000000E+00  0.00000000E+00  0.00000000E+00  0.00000000E+00  1.00000000E+00
  0.00000000E+00  0.00000000E+00 -4.53122873E-18  0.00000000E+00  0.00000000E+00
  0.00000000E+00  0.00000000E+00  0.00000000E+00  0.00000000E+00  0.00000000E+00
  1.00000000E+00  0.00000000E+00  0.00000000E+00  0.00000000E+00 -4.53122873E-18
  0.00000000E+00  0.00000000E+00  0.00000000E+00  0.00000000E+00  0.00000000E+00
  0.00000000E+00  0.00000000E+00  1.00000000E+00  0.00000000E+00  0.00000000E+00
  0.00000000E+00  0.00000000E+00  0.00000000E+00  0.00000000E+00  0.00000000E+00
  0.00000000E+00  0.00000000E+00  0.00000000E+00  0.00000000E+00  0.00000000E+00
  1.00000000E+00  0.00000000E+00  0.00000000E+00  0.00000000E+00  0.00000000E+00
  0.00000000E+00  0.00000000E+00  0.00000000E+00  0.00000000E+00  0.00000000E+00
  0.00000000E+00  0.00000000E+00  0.00000000E+00  0.00000000E+00  1.00000000E+00
  1.01359667E-05  2.34478909E-02  0.00000000E+00  0.00000000E+00 -4.96523898E-02
  7.08687737E-02  0.00000000E+00  0.00000000E+00 -1.31211555E-01  1.19177805E-01
  0.00000000E+00  0.00000000E+00  0.00000000E+00  0.00000000E+00  1.00000000E+00
  2.34478909E-02  2.22186020E-01  0.00000000E+00  0.00000000E+00 -3.00439729E-01
  3.83152510E-01  0.00000000E+00  0.00000000E+00 -5.65480271E-01  3.50331960E-01
  0.00000000E+00  0.00000000E+00  0.00000000E+00  0.00000000E+00  2.22215399E-01
  1.00000000E+00  0.00000000E+00  0.00000000E+00  1.27107974E-01  0.00000000E+00
  0.00000000E+00  0.00000000E+00  2.49243449E-01  0.00000000E+00  0.00000000E+00
  0.00000000E+00 -2.90925108E-01  0.00000000E+00  0.00000000E+00  0.00000000E+00
  0.00000000E+00  0.00000000E+00  1.00000000E+00  0.00000000E+00  0.00000000E+00
  0.00000000E+00  1.27107974E-01  0.00000000E+00  0.00000000E+00  0.00000000E+00
  2.49243449E-01  0.00000000E+00  0.00000000E+00  0.00000000E+00 -2.90925108E-01
  0.00000000E+00  0.00000000E+00  0.00000000E+00  0.00000000E+00  0.00000000E+00
  1.00000000E+00  4.96523898E-02  3.00439729E-01  0.00000000E+00  0.00000000E+00
 -3.43111288E-01  2.38489511E-01  0.00000000E+00  0.00000000E+00 -1.16214262E-01
  2.83420983E-01  0.00000000E+00  0.00000000E+00  0.00000000E+00  0.00000000E+00
 -2.67205579E-17  1.99446504E-16  0.00000000E+00  0.00000000E+00  1.00000000E+00
  7.08687737E-02  3.83152510E-01  0.00000000E+00  0.00000000E+00 -2.38489511E-01
  6.32683816E-01  0.00000000E+00  0.00000000E+00 -6.05385838E-01  1.24693692E-01
  0.00000000E+00  0.00000000E+00  0.00000000E+00  0.00000000E+00  1.71868983E-01
  7.75506703E-01  0.00000000E+00  0.00000000E+00  0.00000000E+00  1.00000000E+00
  0.00000000E+00  0.00000000E+00  2.49243449E-01  0.00000000E+00  0.00000000E+00
  0.00000000E+00  6.32683816E-01  0.00000000E+00  0.00000000E+00  0.00000000E+00
 -2.25714563E-01  0.00000000E+00  0.00000000E+00  0.00000000E+00  0.00000000E+00
  0.00000000E+00  5.19295399E-01  0.00000000E+00  0.00000000E+00  0.00000000E+00
  1.00000000E+00  0.00000000E+00  0.00000000E+00  0.00000000E+00  2.49243449E-01
  0.00000000E+00  0.00000000E+00  0.00000000E+00  6.32683816E-01  0.00000000E+00
  0.00000000E+00  0.00000000E+00 -2.25714563E-01  0.00000000E+00  0.00000000E+00
  0.00000000E+00  0.00000000E+00  0.00000000E+00  5.19295399E-01  0.00000000E+00
  0.00000000E+00  0.00000000E+00  1.00000000E+00  1.31211555E-01  5.65480271E-01
  0.00000000E+00  0.00000000E+00 -1.16214262E-01  6.05385838E-01  0.00000000E+00
  0.00000000E+00  5.34181500E-02 -7.20004300E-02  0.00000000E+00  0.00000000E+00
  0.00000000E+00  0.00000000E+00 -3.19194175E-17  0.00000000E+00  0.00000000E+00
  0.00000000E+00  5.19295399E-01 -2.04489122E-16  0.00000000E+00  0.00000000E+00
  1.00000000E+00  1.19177805E-01  3.50331960E-01  0.00000000E+00  0.00000000E+00
 -2.83420983E-01  1.24693692E-01  0.00000000E+00  0.00000000E+00  7.20004300E-02
  6.61013762E-02  0.00000000E+00  0.00000000E+00  0.00000000E+00  0.00000000E+00
  0.00000000E+00  0.00000000E+00  0.00000000E+00  0.00000000E+00  5.23221226E-18
  0.00000000E+00  0.00000000E+00  0.00000000E+00  0.00000000E+00  1.00000000E+00
  0.00000000E+00  0.00000000E+00  2.90925108E-01  0.00000000E+00  0.00000000E+00
  0.00000000E+00  2.25714563E-01  0.00000000E+00  0.00000000E+00  0.00000000E+00
 -4.36344204E-01  0.00000000E+00  0.00000000E+00  0.00000000E+00  0.00000000E+00
  0.00000000E+00  4.53122873E-18  0.00000000E+00  0.00000000E+00  0.00000000E+00
  0.00000000E+00  0.00000000E+00  0.00000000E+00  0.00000000E+00  1.00000000E+00
  0.00000000E+00  0.00000000E+00  0.00000000E+00  2.90925108E-01  0.00000000E+00
  0.00000000E+00  0.00000000E+00  2.25714563E-01  0.00000000E+00  0.00000000E+00
  0.00000000E+00 -4.36344204E-01  0.00000000E+00  0.00000000E+00  0.00000000E+00
  0.00000000E+00  0.00000000E+00  4.53122873E-18  0.00000000E+00  0.00000000E+00
  0.00000000E+00  0.00000000E+00  0.00000000E+00  0.00000000E+00  0.00000000E+00
  1.00000000E+00  0.00000000E+00  0.00000000E+00  0.00000000E+00  0.00000000E+00
  0.00000000E+00  0.00000000E+00  0.00000000E+00  0.00000000E+00  0.00000000E+00
  0.00000000E+00  0.00000000E+00  0.00000000E+00  1.77775529E-01  0.00000000E+00
  0.00000000E+00  0.00000000E+00  0.00000000E+00  0.00000000E+00  0.00000000E+00
  0.00000000E+00  0.00000000E+00  0.00000000E+00  0.00000000E+00  0.00000000E+00
  0.00000000E+00  0.00000000E+00  1.00000000E+00  0.00000000E+00  0.00000000E+00
  0.00000000E+00  0.00000000E+00  0.00000000E+00  0.00000000E+00  0.00000000E+00
  0.00000000E+00  0.00000000E+00  0.00000000E+00  0.00000000E+00  0.00000000E+00
  0.00000000E+00  1.77775529E-01  0.00000000E+00  0.00000000E+00  0.00000000E+00
  0.00000000E+00  0.00000000E+00  0.00000000E+00  0.00000000E+00  0.00000000E+00
  0.00000000E+00  0.00000000E+00  0.00000000E+00  0.00000000E+00  0.00000000E+00
  1.00000000E+00
Core Hamiltonian Matrix                    R   N=         406
 -2.78120617E+01 -5.87004358E+00 -9.97950419E+00  0.00000000E+00  0.00000000E+00
 -8.79282363E+00  0.00000000E+00  0.00000000E+00  0.00000000E+00 -8.79282363E+00
  1.33321504E-01  9.27968218E-01  0.00000000E+00  0.00000000E+00 -9.32769134E+00
 -4.63339219E+00 -7.63766710E+00  0.00000000E+00  0.00000000E+00  8.84727354E-01
 -8.00669799E+00  0.00000000E+00  0.00000000E+00 -4.10180440E+00  0.00000000E+00
  0.00000000E+00  0.00000000E+00 -5.43654974E+00  0.00000000E+00  0.00000000E+00
  0.00000000E+00 -4.10180440E+00  0.00000000E+00  0.00000000E+00  0.00000000E+00
 -5.43654974E+00  1.95335945E-02  6.07046053E-01  0.00000000E+00  0.00000000E+00
 -4.59647618E+00  1.23162392E+00  0.00000000E+00  0.00000000E+00 -6.54312340E+00
 -9.77881402E-03 -4.80063410E-01  0.00000000E+00  0.00000000E+00  1.14028082E+00
 -6.82074362E-01  0.00000000E+00  0.00000000E+00  1.27525117E+00 -6.62554672E+00
  0.00000000E+00  0.00000000E+00  6.11256172E-01  0.00000000E+00  0.00000000E+00
  0.00000000E+00  5.69378132E-01  0.00000000E+00  0.00000000E+00  0.00000000E+00
 -5.93138907E+00  0.00000000E+00  0.00000000E+00  0.00000000E+00  6.11256172E-01
  0.00000000E+00  0.00000000E+00  0.00000000E+00  5.69378132E-01  0.00000000E+00
  0.00000000E+00  0.00000000E+00 -5.93138907E+00  0.00000000E+00  0.00000000E+00
  0.00000000E+00  0.00000000E+00  0.00000000E+00  0.00000000E+00  0.00000000E+00
  0.00000000E+00  0.00000000E+00  0.00000000E+00  0.00000000E+00  0.00000000E+00
 -5.46253592E+00  0.00000000E+00  0.00000000E+00  0.00000000E+00  0.00000000E+00
  0.00000000E+00  0.00000000E+00  0.00000000E+00  0.00000000E+00  0.00000000E+00
  0.00000000E+00  0.00000000E+00  0.00000000E+00  0.00000000E+00 -5.46253592E+00
 -5.02485546E-04 -6.47263227E-01  0.00000000E+00  0.00000000E+00  1.36043339E+00
 -1.92092754E+00  0.00000000E+00  0.00000000E+00  3.54256191E+00 -3.23719104E+00
  0.00000000E+00  0.00000000E+00  0.00000000E+00  0.00000000E+00 -2.78120617E+01
 -6.47263227E-01 -2.64174972E+00  0.00000000E+00  0.00000000E+00  3.46426265E+00
 -4.06091989E+00  0.00000000E+00  0.00000000E+00  5.67333443E+00 -3.98178918E+00
  0.00000000E+00  0.00000000E+00  0.00000000E+00  0.00000000E+00 -5.87004358E+00
 -9.97950419E+00  0.00000000E+00  0.00000000E+00 -1.26954579E+00  0.00000000E+00
  0.00000000E+00  0.00000000E+00 -2.09258331E+00  0.00000000E+00  0.00000000E+00
  0.00000000E+00  2.64004118E+00  0.00000000E+00  0.00000000E+00  0.00000000E+00
  0.00000000E+00  0.00000000E+00 -8.79282363E+00  0.00000000E+00  0.00000000E+00
  0.00000000E+00 -1.26954579E+00  0.00000000E+00  0.00000000E+00  0.00000000E+00
 -2.09258331E+00  0.00000000E+00  0.00000000E+00  0.00000000E+00  2.64004118E+00
  0.00000000E+00  0.00000000E+00  0.00000000E+00  0.00000000E+00  0.00000000E+00
 -8.79282363E+00 -1.36043339E+00 -3.46426265E+00  0.00000000E+00  0.00000000E+00
  3.78816602E+00 -2.74482948E+00  0.00000000E+00  0.00000000E+00  1.52581032E+00
 -2.99996527E+00  0.00000000E+00  0.00000000E+00  0.00000000E+00  0.00000000E+00
 -1.33321504E-01 -9.27968218E-01  0.00000000E+00  0.00000000E+00 -9.32769134E+00
 -1.92092754E+00 -4.06091989E+00  0.00000000E+00  0.00000000E+00  2.74482948E+00
 -5.49833523E+00  0.00000000E+00  0.00000000E+00  5.13274155E+00 -2.03537213E+00
  0.00000000E+00  0.00000000E+00  0.00000000E+00  0.00000000E+00 -4.63339219E+00
 -7.63766710E+00  0.00000000E+00  0.00000000E+00 -8.84727354E-01 -8.00669799E+00
  0.00000000E+00  0.00000000E+00 -2.09258331E+00  0.00000000E+00  0.00000000E+00
  0.00000000E+00 -3.70370248E+00  0.00000000E+00  0.00000000E+00  0.00000000E+00
  1.85099369E+00  0.00000000E+00  0.00000000E+00  0.00000000E+00  0.00000000E+00
  0.00000000E+00 -4.10180440E+00  0.00000000E+00  0.00000000E+00  0.00000000E+00
 -5.43654974E+00  0.00000000E+00  0.00000000E+00  0.00000000E+00 -2.09258331E+00
  0.00000000E+00  0.00000000E+00  0.00000000E+00 -3.70370248E+00  0.00000000E+00
  0.00000000E+00  0.00000000E+00  1.85099369E+00  0.00000000E+00  0.00000000E+00
  0.00000000E+00  0.00000000E+00  0.00000000E+00 -4.10180440E+00  0.00000000E+00
  0.00000000E+00  0.00000000E+00 -5.43654974E+00 -3.54256191E+00 -5.67333443E+00
  0.00000000E+00  0.00000000E+00  1.52581032E+00 -5.13274155E+00  0.00000000E+00
  0.00000000E+00  2.21165359E-01  2.61248158E-02  0.00000000E+00  0.00000000E+00
  0.00000000E+00  0.00000000E+00 -1.95335945E-02 -6.07046053E-01  0.00000000E+00
  0.00000000E+00 -4.59647618E+00 -1.23162392E+00  0.00000000E+00  0.00000000E+00
 -6.54312340E+00 -3.23719104E+00 -3.98178918E+00  0.00000000E+00  0.00000000E+00
  2.99996527E+00 -2.03537213E+00  0.00000000E+00  0.00000000E+00 -2.61248158E-02
 -7.12408906E-01  0.00000000E+00  0.00000000E+00  0.00000000E+00  0.00000000E+00
 -9.77881402E-03 -4.80063410E-01  0.00000000E+00  0.00000000E+00 -1.14028082E+00
 -6.82074362E-01  0.00000000E+00  0.00000000E+00 -1.27525117E+00 -6.62554672E+00
  0.00000000E+00  0.00000000E+00 -2.64004118E+00  0.00000000E+00  0.00000000E+00
  0.00000000E+00 -1.85099369E+00  0.00000000E+00  0.00000000E+00  0.00000000E+00
  3.20938884E+00  0.00000000E+00  0.00000000E+00  0.00000000E+00  0.00000000E+00
  0.00000000E+00 -6.11256172E-01  0.00000000E+00  0.00000000E+00  0.00000000E+00
 -5.69378132E-01  0.00000000E+00  0.00000000E+00  0.00000000E+00 -5.93138907E+00
  0.00000000E+00  0.00000000E+00  0.00000000E+00 -2.64004118E+00  0.00000000E+00
  0.00000000E+00  0.00000000E+00 -1.85099369E+00  0.00000000E+00  0.00000000E+00
  0.00000000E+00  3.20938884E+00  0.00000000E+00  0.00000000E+00  0.00000000E+00
  0.00000000E+00  0.00000000E+00 -6.11256172E-01  0.00000000E+00  0.00000000E+00
  0.00000000E+00 -5.69378132E-01  0.00000000E+00  0.00000000E+00  0.00000000E+00
 -5.93138907E+00  0.00000000E+00  0.00000000E+00  0.00000000E+00  0.00000000E+00
  0.00000000E+00  0.00000000E+00  0.00000000E+00  0.00000000E+00  0.00000000E+00
  0.00000000E+00  0.00000000E+00  0.00000000E+00 -1.28109447E+00  0.00000000E+00
  0.00000000E+00  0.00000000E+00  0.00000000E+00  0.00000000E+00  0.00000000E+00
  0.00000000E+00  0.00000000E+00  0.00000000E+00  0.00000000E+00  0.00000000E+00
  0.00000000E+00  0.00000000E+00 -5.46253592E+00  0.00000000E+00  0.00000000E+00
  0.00000000E+00  0.00000000E+00  0.00000000E+00  0.00000000E+00  0.00000000E+00
  0.00000000E+00  0.00000000E+00  0.00000000E+00  0.00000000E+00  0.00000000E+00
  0.00000000E+00 -1.28109447E+00  0.00000000E+00  0.00000000E+00  0.00000000E+00
  0.00000000E+00  0.00000000E+00  0.00000000E+00  0.00000000E+00  0.00000000E+00
  0.00000000E+00  0.00000000E+00  0.00000000E+00  0.00000000E+00  0.00000000E+00
 -5.46253592E+00
Orbital Coefficients CCMAN2 Alpha          R   N=         784
 -7.04079011E-01 -1.44641638E-02 -4.30374970E-17  5.43671937E-17  1.24618838E-03
  2.68539780E-03 -2.40086313E-16 -5.30226465E-16 -7.56360071E-04 -1.40972102E-16
  9.23346649E-17 -3.16111240E-04  1.47859459E-17 -7.15358543E-15 -7.04079011E-01
 -1.44641638E-02 -2.30024868E-16 -3.00595262E-17 -1.24618838E-03  2.68539780E-03
  5.17394917E-16  5.59044579E-16  7.56360071E-04  7.72589366E-17 -1.67994341E-16
 -3.16111240E-04 -7.39453452E-17 -7.25076991E-15  7.04583347E-01  1.67221867E-02
  8.25178444E-17  7.20982062E-17 -3.11704613E-03 -9.07660355E-03 -2.11834177E-16
 -8.53650506E-17  2.90706584E-03 -4.65321196E-17 -9.12763153E-18  1.60552323E-03
  1.50956040E-16 -6.23345237E-15 -7.04583347E-01 -1.67221867E-02  1.17785491E-17
  8.22831668E-17 -3.11704613E-03  9.07660355E-03  2.59031224E-16 -2.05712818E-17
  2.90706584E-03  4.46284839E-16  1.42125536E-16 -1.60552323E-03  3.62571476E-17
  6.25309706E-15 -1.59873791E-01  3.39063952E-01  1.02490080E-16  3.75514330E-17
 -2.19859635E-01  1.89188040E-01  7.25160693E-17  3.43460647E-16 -3.49832612E-02
 -4.53128793E-17 -2.41672743E-16  2.82627485E-02  2.22169229E-17 -9.82101843E-12
 -1.59873791E-01  3.39063952E-01  4.96479570E-17  3.04152989E-16  2.19859635E-01
  1.89188040E-01 -1.20659683E-16 -3.34130152E-16  3.49832612E-02 -2.69627061E-16
 -1.94019003E-16  2.82627485E-02 -2.16199272E-17 -9.82107288E-12 -5.37157378E-02
  1.04271460E-01 -8.58272043E-15 -2.95627486E-15  4.59225938E-01  3.23068591E-01
 -4.68978100E-15 -1.62842605E-15  2.03980535E-01  3.33692182E-17  3.70453570E-16
 -2.48398718E-02  9.43559053E-16 -9.49429089E-12 -5.37157378E-02  1.04271460E-01
 -8.69838035E-15 -3.06639759E-15 -4.59225938E-01  3.23068591E-01 -5.93985363E-15
 -2.22459184E-15 -2.03980535E-01  9.94169799E-17 -1.45811331E-16 -2.48398718E-02
 -1.00945690E-15 -9.49438256E-12 -1.45002370E-01  3.32858648E-01 -2.58227662E-16
 -1.34673779E-16  2.19232994E-01  4.64927588E-01  1.99345206E-17 -2.50931645E-16
  8.66917484E-02  6.40058098E-19  1.05982254E-16 -1.17387593E-02  3.26866156E-17
 -1.37849173E-11  1.45002370E-01 -3.32858648E-01 -2.29423165E-16 -1.67841021E-16
  2.19232994E-01 -4.64927588E-01 -5.54822250E-16 -2.64950586E-16  8.66917484E-02
  9.12467889E-17  1.28723982E-16  1.17387593E-02 -5.20975792E-17  1.37852166E-11
  5.11365328E-16 -6.48127071E-16  1.56639262E-16 -4.33246204E-01 -3.63752866E-15
 -5.68228261E-15  1.16088428E-15 -2.49491606E-01 -1.34806673E-17 -2.28816211E-16
  4.77030904E-02  1.68154489E-16 -3.10724719E-16 -1.30442126E-18  2.61820850E-16
 -1.90904600E-15  4.92619539E-16 -4.33246204E-01  3.21398345E-15  1.99855331E-15
 -1.78794891E-16 -2.49491606E-01  2.94723955E-15  1.30860867E-16 -4.77030904E-02
  3.63992883E-16  1.15010981E-16 -5.98022713E-20  1.26589301E-15 -2.42057689E-15
 -4.33246204E-01 -7.13837440E-16 -9.92525756E-15 -7.40924601E-15 -2.49491606E-01
 -1.93299907E-16 -3.95350081E-15  2.05404398E-17 -1.57152008E-16  5.81914185E-16
  4.77030904E-02  5.95783344E-21  8.78375164E-16 -1.78953301E-15 -4.33246204E-01
 -2.80065091E-16  9.14449811E-15 -6.01782315E-15 -2.49491606E-01 -3.51878027E-16
  4.21439165E-15 -1.39973253E-16 -2.41962294E-16  5.98612198E-16 -4.77030904E-02
 -1.95713046E-18 -1.89190636E-02 -2.90673066E-01 -4.74593425E-15 -1.62593309E-15
  4.53280567E-01 -1.65928680E-02  4.10218222E-15  1.42982932E-15 -9.58413108E-01
  5.41044849E-17  4.33053853E-16 -6.51544243E-02  1.17040601E-15 -2.28631434E-11
 -1.89190636E-02 -2.90673066E-01 -8.25330075E-15 -2.39370367E-15 -4.53280567E-01
 -1.65928680E-02  8.29117508E-15  2.35185499E-15  9.58413108E-01  3.48419784E-16
 -5.00577312E-17 -6.51544243E-02 -8.96213646E-16 -2.28632102E-11 -5.14146846E-02
  1.00333579E+00  4.66844684E-15  1.12681113E-14  2.63732826E-01 -8.89622803E-01
 -1.15910718E-15 -1.40238588E-14 -1.65410424E-01 -1.85495480E-16  9.15680585E-16
  5.86005165E-02 -5.17572640E-16  3.26342954E-11 -5.14146846E-02  1.00333579E+00
  9.58007099E-15 -1.55192236E-15 -2.63732826E-01 -8.89622803E-01 -1.24916349E-14
  6.57684755E-15  1.65410424E-01 -2.08230574E-16  1.89911803E-16  5.86005165E-02
 -1.85507681E-16  3.26349806E-11 -1.87997245E-12 -6.16503263E-11 -1.27046564E-16
  1.19952292E-16  1.00173118E-11  5.46761894E-11 -1.02489990E-15  1.89190518E-16
 -2.89461525E-11  5.67186746E-15 -4.36985820E-16  4.13641216E-12  3.02016712E-15
  6.51558986E-01 -1.87896675E-12 -6.17349960E-11  8.83682429E-16 -1.34522882E-16
 -1.00291847E-11  5.50841341E-11  8.59075612E-16 -1.82524202E-16  2.91343053E-11
  5.67186746E-15 -4.04762663E-16  4.14369654E-12  1.42040611E-15  6.51558986E-01
 -5.36312642E-02 -7.14636322E-01  4.39637835E-16 -4.32726601E-16  3.58684169E-01
  3.03741323E-01  8.35138438E-16 -2.55473465E-15 -5.57575963E-01 -9.59111426E-17
  5.34166080E-15  8.44368585E-01 -1.17785386E-15 -7.17512311E-12 -5.36312642E-02
 -7.14636322E-01 -3.47729237E-16  5.06285777E-16 -3.58684169E-01  3.03741323E-01
  7.13420515E-17  2.61669249E-15  5.57575963E-01 -1.00534063E-16  3.13505297E-15
  8.44368585E-01 -3.23318933E-15 -7.17355759E-12  1.67386908E-16  5.19311013E-15
 -1.14802042E-15 -1.03100458E-15 -2.00700161E-16 -3.14346322E-14  2.21089403E-16
  2.45151303E-15  1.47705427E-14 -6.51558986E-01  1.33178435E-16 -1.68716833E-15
 -6.01980093E-17  5.67186746E-15  7.91819806E-17 -5.84336335E-15  5.06979858E-16
  1.08504043E-15 -5.97936022E-16  3.21130516E-14 -1.22052892E-17 -2.10779964E-15
  1.51907314E-14 -6.51558986E-01  7.89425003E-16  1.40616928E-15  1.38125965E-15
  5.67186746E-15 -1.58500533E-16  1.41849571E-16 -4.33903148E-01 -2.71676543E-15
  5.99342889E-16  3.64377265E-15 -6.78473433E-01 -2.92400856E-15 -2.21633126E-15
  4.56827302E-16 -1.45510969E-16 -1.08571105E-16 -1.33705006E-02 -4.30612380E-17
  3.66445027E-17  6.31546036E-16  4.33903148E-01  2.92943295E-15 -4.49389487E-16
 -4.06580805E-15  6.78473433E-01  2.77819353E-15 -1.60866870E-15  5.15159173E-16
 -1.22189558E-16 -2.47596057E-16 -1.33705006E-02 -7.13993105E-18  2.26142504E-17
 -8.61307805E-16 -7.27171425E-01 -5.46677288E-15  1.07790197E-15 -8.36631123E-15
  1.16945094E+00  8.22847023E-15  1.38148415E-15  3.18991626E-16 -4.24797108E-16
 -4.46732255E-16 -7.15394393E-02  6.50701234E-18  3.63948449E-16 -9.81143556E-15
  7.27171425E-01  1.21723187E-15  1.21603739E-15  1.62446133E-14 -1.16945094E+00
 -4.65453583E-15  4.85167788E-15  2.59851274E-16 -9.93312123E-16  9.37417258E-17
 -7.15394393E-02  1.80491602E-18  1.71702203E-16 -6.83613411E-16  2.59132086E-01
  2.10741797E-17  1.12134699E-15 -1.37645212E-15  4.67625299E-01  5.76607176E-15
  1.91732956E-15 -1.58850038E-15 -8.90374268E-15 -3.88871727E-15 -1.11316111E+00
  1.35326167E-15  1.05701881E-16  3.12154831E-15 -2.59132086E-01 -1.38201811E-15
  2.94961692E-15  5.84204461E-16 -4.67625299E-01 -5.16671463E-15 -8.15310695E-16
  2.29658667E-16 -8.21140505E-15  4.82992013E-16 -1.11316111E+00  1.01980838E-15
 -2.25891479E-16  3.26839921E-16  2.08886456E-15 -4.33903148E-01  8.20474085E-17
  3.43351055E-15  2.47256456E-15 -6.78473433E-01 -1.84151452E-15  5.43667509E-16
 -1.33705006E-02  6.94916578E-17  5.08439600E-17  9.96552608E-18  2.85354020E-16
 -2.12520594E-16 -1.33368090E-15  4.33903148E-01 -3.17076130E-16 -3.12408621E-15
 -2.72110012E-15  6.78473433E-01 -2.02090563E-15  8.47039231E-17 -1.33705006E-02
 -2.35541169E-16  1.02276105E-16  6.16231227E-18  4.09177435E-16 -1.13464781E-14
 -1.28837481E-15  7.27171425E-01 -5.20491764E-15  1.41813111E-14  1.64726563E-15
 -1.16945094E+00  2.21298802E-15 -9.27849965E-16  7.15394393E-02 -1.54467937E-15
 -1.01949423E-15 -9.95409024E-18  6.76534507E-16 -7.21687381E-15  6.13272225E-15
 -7.27171425E-01  6.73765513E-16  2.79367664E-15 -5.07691262E-15  1.16945094E+00
 -2.79439500E-15 -1.81509106E-16  7.15394393E-02  9.09594863E-17 -9.12851722E-16
 -2.30033669E-18 -4.75522997E-16  5.80473150E-15 -1.67508643E-15  2.59132086E-01
 -1.28493879E-14  2.78924368E-14 -3.86867221E-15  4.67625299E-01 -1.52188115E-14
  9.12266102E-16 -1.11316111E+00  1.79110239E-14  7.48667689E-15 -3.04871170E-16
  4.95438597E-17 -1.07795672E-14  4.54655099E-16 -2.59132086E-01 -1.59213898E-14
 -2.61420178E-14  5.30118619E-15 -4.67625299E-01 -1.03238742E-14 -2.43415776E-15
 -1.11316111E+00 -1.13442961E-14  7.68213143E-15 -1.99806159E-16 -2.59875657E-18
 -2.09599245E-15  7.30710456E-16  6.91268711E-17 -2.11716094E-16  1.58259981E-14
 -7.10780614E-16  2.51913639E-15 -7.73170577E-15 -7.79811801E-01  6.22743726E-16
  1.02518661E-15  2.25918717E-15  7.58870717E-15 -3.35068064E-19  1.97526878E-15
  9.16758394E-16  2.02375825E-15  5.12918503E-16 -1.58952956E-14 -2.18895390E-16
 -2.48834710E-15 -8.15723043E-15  7.79811801E-01 -4.31211619E-15 -9.50280822E-16
  4.35115971E-18 -7.58870717E-15 -1.01022104E-01  1.95258409E-01 -7.91993098E-16
 -6.82471741E-16 -5.98945867E-02  4.30371873E+00 -2.03525026E-16  9.38536629E-16
 -2.79990820E+00  3.23842193E-17 -3.67459017E-18  5.14853264E-02  2.52696322E-16
 -8.74022540E-12  1.01022104E-01 -1.95258409E-01 -2.21882339E-15 -1.47020778E-15
 -5.98945867E-02 -4.30371873E+00  3.06319307E-15  9.85802235E-16 -2.79990820E+00
 -4.88627912E-16 -4.77444610E-16 -5.14853264E-02  1.98396615E-16  8.74443905E-12
  3.70040986E-02  3.08683162E-01 -7.32284751E-16  1.63520757E-15  7.47080957E-01
 -1.13524714E+00 -1.15888320E-15 -3.54660450E-15  3.54997657E-02  5.04367957E-17
 -5.19743077E-16  2.08585509E-01 -1.29972923E-16  2.51310917E-11 -3.70040986E-02
 -3.08683162E-01 -4.17181732E-15 -3.76505804E-15  7.47080957E-01  1.13524714E+00
  5.49020811E-15  4.47233772E-15  3.54997657E-02 -1.49916424E-16  3.77009463E-16
 -2.08585509E-01  4.18035883E-16 -2.51358492E-11  2.79546214E-02 -1.31205250E+00
  1.93406249E-15  3.34902486E-15  1.92516091E-01  6.32380478E+00  7.79235218E-16
 -3.57263254E-16 -2.90455863E+00 -1.69644320E-15  3.70906393E-15  2.41085613E-01
  1.83717250E-15 -2.94096022E-11 -2.79546214E-02  1.31205250E+00  7.00707470E-15
  4.23422790E-15  1.92516091E-01 -6.32380478E+00 -8.16846214E-15 -2.35162018E-15
 -2.90455863E+00 -3.99273093E-15 -5.75667584E-15 -2.41085613E-01 -1.49444715E-15
  2.94497537E-11 -4.51458330E-12 -3.99695341E-11 -3.96330186E-17  3.50200190E-17
 -3.57403714E-11  4.01303065E-10 -1.71287122E-16  3.57434388E-17 -1.75897716E-10
  7.58870717E-15 -6.86212275E-17  2.73034317E-11  4.96562096E-16  7.79811801E-01
  4.51469646E-12  3.99688725E-11  1.20250170E-16 -3.60846203E-17 -3.57412970E-11
 -4.01303235E-10  1.62019326E-16 -3.25936259E-17 -1.75896460E-10 -7.58870717E-15
 -6.33338352E-17 -2.73015987E-11  2.80919676E-16 -7.79811801E-01 -3.36451599E-02
  5.59643350E-01  7.40740496E-16 -3.55727628E-15 -1.08432858E+00  3.40952047E+00
  1.16937565E-15 -6.98139075E-15 -1.72850478E+00 -1.09351014E-16  1.40424739E-14
  1.20315922E+00 -2.07631220E-15 -1.59181096E-11  3.36451599E-02 -5.59643350E-01
  3.30929737E-16  2.80451675E-15 -1.08432858E+00 -3.40952047E+00 -2.10829195E-15
  6.92786955E-15 -1.72850478E+00 -8.44940968E-16  1.65904058E-14 -1.20315922E+00
 -2.68879875E-15  1.59146622E-11  3.66013528E-17 -4.54188641E-15 -1.56951542E-15
  6.34293753E-01  2.02093684E-16  5.42335666E-15  1.87540347E-15 -6.19761580E-01
 -4.56471529E-15 -3.95612432E-17 -1.00955744E-01 -4.81123735E-16 -2.99510215E-16
  6.11547781E-19  3.78346683E-16 -8.89494264E-15  1.54658507E-15  6.34293753E-01
  4.43009473E-16  4.68727586E-15 -2.19667650E-15 -6.19761580E-01 -2.44917872E-16
  9.24367732E-18  1.00955744E-01 -3.20173214E-16 -2.52703558E-16  1.12062854E-19
  1.17095263E-16 -1.17960250E-14 -2.03390060E-15 -2.90982065E-01  3.29358286E-15
  5.77195353E-14  5.17299538E-16  6.98237419E-02 -2.79825698E-14 -2.37319142E-15
 -5.95838411E-01  1.76427295E-15 -3.92499482E-15 -1.96441464E-17 -5.50399496E-16
  1.67395158E-14 -2.44920254E-15 -2.90982065E-01  1.22381724E-15 -6.27893865E-14
  9.79793080E-16  6.98237419E-02 -2.58377203E-14  2.89154805E-15  5.95838411E-01
  6.92274792E-16  4.96886468E-15 -1.42708072E-17  6.61896931E-17 -7.41071444E-15
  6.34293753E-01 -1.14860844E-15  3.11591239E-15 -3.45743497E-15 -6.19761580E-01
  2.87925335E-15 -6.69975655E-15  8.91675290E-17 -7.53787683E-16 -1.28486941E-15
 -1.00955744E-01  2.73618786E-17  4.87427554E-16 -1.85883356E-14  6.34293753E-01
  1.26284682E-15 -1.32156457E-15  2.03598839E-14 -6.19761580E-01 -2.92765011E-15
  1.05933063E-14 -2.40897931E-16 -4.99090169E-16 -5.52423341E-16  1.00955744E-01
  5.36139145E-18 -1.46371557E-17 -4.22890624E-15 -2.90982065E-01  2.85149915E-15
  5.38306842E-16  2.39420378E-14  6.98237419E-02 -1.54509016E-15 -1.16253352E-14
 -4.11168789E-16  5.68423143E-15  2.17531058E-15 -5.95838411E-01  1.15924302E-15
 -3.56472850E-16  8.69921862E-15 -2.90982065E-01  1.38626937E-15 -1.77049439E-15
 -2.88228167E-14  6.98237419E-02  3.98054240E-16 -9.28998129E-15  2.05989501E-15
 -4.97885628E-15 -1.61519795E-17  5.95838411E-01  7.47031642E-16
Alpha  State Density                       R   N=         406
  1.03978032E+00 -7.25173089E-02  1.96940489E-01  6.14511238E-17  3.80429148E-16
  1.62166616E-01  3.15534687E-17  6.60074382E-18  2.94230568E-16  1.66137915E-01
 -1.83805925E-02  2.19446876E-02  2.92239337E-16  1.06202960E-16  2.74287398E-01
 -1.14734308E-01  2.09728388E-01 -5.32056926E-17  9.57783226E-16  1.88124834E-01
  3.25688509E-01 -1.36699031E-16  5.23659627E-16  1.18464809E-01 -3.16412985E-16
  7.33429738E-16  4.75599135E-16  7.94753609E-02  1.51858992E-16  3.00066210E-16
 -2.78325184E-17  1.19533162E-01  3.79212985E-16  1.11303809E-15 -3.50901388E-16