Jobname.Temp
SP        R                             6-31G(d)            
Number of atoms                            I                2
Charge                                     I                0
Multiplicity                               I                1
Number of electrons                        I               14
Number of alpha electrons                  I                7
Number of beta electrons                   I                7
Atomic numbers                             I   N=           2
           7           7
Current cartesian coordinates              R   N=           6
  0.00000000E+00  0.00000000E+00  1.03900000E+00  0.00000000E+00  0.00000000E+00
 -1.03900000E+00
Nuclear charges                            R   N=           2
  7.00000000E+00  7.00000000E+00
Number of basis functions                  I               28
Number of contracted shells                I                8
Number of primitive shells                 I               22
Highest angular momentum                   I                2
Largest degree of contraction              I                6
Shell types                                I   N=           8
           0          -1          -1          -2           0          -1
          -1          -2
Number of primitives per shell             I   N=           8
           6           3           1           1           6           3
           1           1
Shell to atom map                          I   N=           8
           1           1           1           1           2           2
           2           2
Primitive exponents                        R   N=          22
  4.17351100E+03  6.27457900E+02  1.42902100E+02  4.02343300E+01  1.28202100E+01
  4.39043700E+00  1.16263580E+01  2.71628000E+00  7.72218000E-01  2.12031300E-01
  8.00000000E-01  4.17351100E+03  6.27457900E+02  1.42902100E+02  4.02343300E+01
  1.28202100E+01  4.39043700E+00  1.16263580E+01  2.71628000E+00  7.72218000E-01
  2.12031300E-01  8.00000000E-01
Contraction coefficients                   R   N=          22
  1.83479944E-03  1.39949958E-02  6.85869792E-02  2.32240930E-01  4.69069858E-01
  3.60454891E-01 -1.14961023E-01 -1.69118034E-01  1.14585223E+00  1.00000000E+00
  1.00000000E+00  1.83479944E-03  1.39949958E-02  6.85869792E-02  2.32240930E-01
  4.69069858E-01  3.60454891E-01 -1.14961023E-01 -1.69118034E-01  1.14585223E+00
  1.00000000E+00  1.00000000E+00
P(S=P) Contraction coefficients            R   N=          22
  0.00000000E+00  0.00000000E+00  0.00000000E+00  0.00000000E+00  0.00000000E+00
  0.00000000E+00  6.75800232E-02  3.23907111E-01  7.40895255E-01  1.00000000E+00
  0.00000000E+00  0.00000000E+00  0.00000000E+00  0.00000000E+00  0.00000000E+00
  0.00000000E+00  0.00000000E+00  6.75800232E-02  3.23907111E-01  7.40895255E-01
  1.00000000E+00  0.00000000E+00
Coordinates of each shell                  R   N=          24
  0.00000000E+00  0.00000000E+00  1.03900000E+00  0.00000000E+00  0.00000000E+00
  1.03900000E+00  0.00000000E+00  0.00000000E+00  1.03900000E+00  0.00000000E+00
  0.00000000E+00  1.03900000E+00  0.00000000E+00  0.00000000E+00 -1.03900000E+00
  0.00000000E+00  0.00000000E+00 -1.03900000E+00  0.00000000E+00  0.00000000E+00
 -1.03900000E+00  0.00000000E+00  0.00000000E+00 -1.03900000E+00
Overlap Matrix                             R   N=         406
  1.00000000E+00  2.22215399E-01  1.00000000E+00  0.00000000E+00  0.00000000E+00
  1.00000000E+00  0.00000000E+00  0.00000000E+00  0.00000000E+00  1.00000000E+00
  2.67205579E-17 -1.99446504E-16  0.00000000E+00  0.00000000E+00  1.00000000E+00
  1.71868983E-01  7.75506703E-01  0.00000000E+00  0.00000000E+00  0.00000000E+00
  1.00000000E+00  0.00000000E+00  0.00000000E+00  5.19295399E-01  0.00000000E+00
  0.00000000E+00  0.00000000E+00  1.00000000E+00  0.00000000E+00  0.00000000E+00
  0.00000000E+00  5.19295399E-01  0.00000000E+00  0.00000000E+00  0.00000000E+00
  1.00000000E+00  3.19194175E-17  0.00000000E+00  0.00000000E+00  0.00000000E+00
  5.19295399E-01  2.04489122E-16  0.00000000E+00  0.00000000E+00  1.00000000E+00
  0.00000000E+00  0.00000000E+00  0.00000000E+00  0.00000000E+00 -5.23221226E-18
  0.00000000E+00  0.00000000E+00  0.00000000E+00  0.00000000E+00  1.00000000E+00
  0.00000000E+00  0.00000000E+00 -4.53122873E-18  0.00000000E+00  0.00000000E+00
  0.00000000E+00  0.00000000E+00  0.00000000E+00  0.00000000E+00  0.00000000E+00
  1.00000000E+00  0.00000000E+00  0.00000000E+00  0.00000000E+00 -4.53122873E-18
  0.00000000E+00  0.00000000E+00  0.00000000E+00  0.00000000E+00  0.00000000E+00
  0.00000000E+00  0.00000000E+00  1.00000000E+00  0.00000000E+00  0.00000000E+00
  0.00000000E+00  0.00000000E+00  0.00000000E+00  0.00000000E+00  0.00000000E+00
  0.00000000E+00  0.00000000E+00  0.00000000E+00  0.00000000E+00  0.00000000E+00
  1.00000000E+00  0.00000000E+00  0.00000000E+00  0.00000000E+00  0.00000000E+00
  0.00000000E+00  0.00000000E+00  0.00000000E+00  0.00000000E+00  0.00000000E+00
  0.00000000E+00  0.00000000E+00  0.00000000E+00  0.00000000E+00  1.00000000E+00
  1.01359667E-05  2.34478909E-02  0.00000000E+00  0.00000000E+00 -4.96523898E-02
  7.08687737E-02  0.00000000E+00  0.00000000E+00 -1.31211555E-01  1.19177805E-01
  0.00000000E+00  0.00000000E+00  0.00000000E+00  0.00000000E+00  1.00000000E+00
  2.34478909E-02  2.22186020E-01  0.00000000E+00  0.00000000E+00 -3.00439729E-01
  3.83152510E-01  0.00000000E+00  0.00000000E+00 -5.65480271E-01  3.50331960E-01
  0.00000000E+00  0.00000000E+00  0.00000000E+00  0.00000000E+00  2.22215399E-01
  1.00000000E+00  0.00000000E+00  0.00000000E+00  1.27107974E-01  0.00000000E+00
  0.00000000E+00  0.00000000E+00  2.49243449E-01  0.00000000E+00  0.00000000E+00
  0.00000000E+00 -2.90925108E-01  0.00000000E+00  0.00000000E+00  0.00000000E+00
  0.00000000E+00  0.00000000E+00  1.00000000E+00  0.00000000E+00  0.00000000E+00
  0.00000000E+00  1.27107974E-01  0.00000000E+00  0.00000000E+00  0.00000000E+00
  2.49243449E-01  0.00000000E+00  0.00000000E+00  0.00000000E+00 -2.90925108E-01
  0.00000000E+00  0.00000000E+00  0.00000000E+00  0.00000000E+00  0.00000000E+00
  1.00000000E+00  4.96523898E-02  3.00439729E-01  0.00000000E+00  0.00000000E+00
 -3.43111288E-01  2.38489511E-01  0.00000000E+00  0.00000000E+00 -1.16214262E-01
  2.83420983E-01  0.00000000E+00  0.00000000E+00  0.00000000E+00  0.00000000E+00
 -2.67205579E-17  1.99446504E-16  0.00000000E+00  0.00000000E+00  1.00000000E+00
  7.08687737E-02  3.83152510E-01  0.00000000E+00  0.00000000E+00 -2.38489511E-01
  6.32683816E-01  0.00000000E+00  0.00000000E+00 -6.05385838E-01  1.24693692E-01
  0.00000000E+00  0.00000000E+00  0.00000000E+00  0.00000000E+00  1.71868983E-01
  7.75506703E-01  0.00000000E+00  0.00000000E+00  0.00000000E+00  1.00000000E+00
  0.00000000E+00  0.00000000E+00  2.49243449E-01  0.00000000E+00  0.00000000E+00
  0.00000000E+00  6.32683816E-01  0.00000000E+00  0.00000000E+00  0.00000000E+00
 -2.25714563E-01  0.00000000E+00  0.00000000E+00  0.00000000E+00  0.00000000E+00
  0.00000000E+00  5.19295399E-01  0.00000000E+00  0.00000000E+00  0.00000000E+00
  1.00000000E+00  0.00000000E+00  0.00000000E+00  0.00000000E+00  2.49243449E-01
  0.00000000E+00  0.00000000E+00  0.00000000E+00  6.32683816E-01  0.00000000E+00
  0.00000000E+00  0.00000000E+00 -2.25714563E-01  0.00000000E+00  0.00000000E+00
  0.00000000E+00  0.00000000E+00  0.00000000E+00  5.19295399E-01  0.00000000E+00
  0.00000000E+00  0.00000000E+00  1.00000000E+00  1.31211555E-01  5.65480271E-01
  0.00000000E+00  0.00000000E+00 -1.16214262E-01  6.05385838E-01  0.00000000E+00
  0.00000000E+00  5.34181500E-02 -7.20004300E-02  0.00000000E+00  0.00000000E+00
  0.00000000E+00  0.00000000E+00 -3.19194175E-17  0.00000000E+00  0.00000000E+00
  0.00000000E+00  5.19295399E-01 -2.04489122E-16  0.00000000E+00  0.00000000E+00
  1.00000000E+00  1.19177805E-01  3.50331960E-01  0.00000000E+00  0.00000000E+00
 -2.83420983E-01  1.24693692E-01  0.00000000E+00  0.00000000E+00  7.20004300E-02
  6.61013762E-02  0.00000000E+00  0.00000000E+00  0.00000000E+00  0.00000000E+00
  0.00000000E+00  0.00000000E+00  0.00000000E+00  0.00000000E+00  5.23221226E-18
  0.00000000E+00  0.00000000E+00  0.00000000E+00  0.00000000E+00  1.00000000E+00
  0.00000000E+00  0.00000000E+00  2.90925108E-01  0.00000000E+00  0.00000000E+00
  0.00000000E+00  2.25714563E-01  0.00000000E+00  0.00000000E+00  0.00000000E+00
 -4.36344204E-01  0.00000000E+00  0.00000000E+00  0.00000000E+00  0.00000000E+00
  0.00000000E+00  4.53122873E-18  0.00000000E+00  0.00000000E+00  0.00000000E+00
  0.00000000E+00  0.00000000E+00  0.00000000E+00  0.00000000E+00  1.00000000E+00
  0.00000000E+00  0.00000000E+00  0.00000000E+00  2.90925108E-01  0.00000000E+00
  0.00000000E+00  0.00000000E+00  2.25714563E-01  0.00000000E+00  0.00000000E+00
  0.00000000E+00 -4.36344204E-01  0.00000000E+00  0.00000000E+00  0.00000000E+00
  0.00000000E+00  0.00000000E+00  4.53122873E-18  0.00000000E+00  0.00000000E+00
  0.00000000E+00  0.00000000E+00  0.00000000E+00  0.00000000E+00  0.00000000E+00
  1.00000000E+00  0.00000000E+00  0.00000000E+00  0.00000000E+00  0.00000000E+00
  0.00000000E+00  0.00000000E+00  0.00000000E+00  0.00000000E+00  0.00000000E+00
  0.00000000E+00  0.00000000E+00  0.00000000E+00  1.77775529E-01  0.00000000E+00
  0.00000000E+00  0.00000000E+00  0.00000000E+00  0.00000000E+00  0.00000000E+00
  0.00000000E+00  0.00000000E+00  0.00000000E+00  0.00000000E+00  0.00000000E+00
  0.00000000E+00  0.00000000E+00  1.00000000E+00  0.00000000E+00  0.00000000E+00
  0.00000000E+00  0.00000000E+00  0.00000000E+00  0.00000000E+00  0.00000000E+00
  0.00000000E+00  0.00000000E+00  0.00000000E+00  0.00000000E+00  0.00000000E+00
  0.00000000E+00  1.77775529E-01  0.00000000E+00  0.00000000E+00  0.00000000E+00
  0.00000000E+00  0.00000000E+00  0.00000000E+00  0.00000000E+00  0.00000000E+00
  0.00000000E+00  0.00000000E+00  0.00000000E+00  0.00000000E+00  0.00000000E+00
  1.00000000E+00
Core Hamiltonian Matrix                    R   N=         406
 -2.78120617E+01 -5.87004358E+00 -9.97950419E+00  0.00000000E+00  0.00000000E+00
 -8.79282363E+00  0.00000000E+00  0.00000000E+00  0.00000000E+00 -8.79282363E+00
  1.33321504E-01  9.27968218E-01  0.00000000E+00  0.00000000E+00 -9.32769134E+00
 -4.63339219E+00 -7.63766710E+00  0.00000000E+00  0.00000000E+00  8.84727354E-01
 -8.00669799E+00  0.00000000E+00  0.00000000E+00 -4.10180440E+00  0.00000000E+00
  0.00000000E+00  0.00000000E+00 -5.43654974E+00  0.00000000E+00  0.00000000E+00
  0.00000000E+00 -4.10180440E+00  0.00000000E+00  0.00000000E+00  0.00000000E+00
 -5.43654974E+00  1.95335945E-02  6.07046053E-01  0.00000000E+00  0.00000000E+00
 -4.59647618E+00  1.23162392E+00  0.00000000E+00  0.00000000E+00 -6.54312340E+00
 -9.77881402E-03 -4.80063410E-01  0.00000000E+00  0.00000000E+00  1.14028082E+00
 -6.82074362E-01  0.00000000E+00  0.00000000E+00  1.27525117E+00 -6.62554672E+00
  0.00000000E+00  0.00000000E+00  6.11256172E-01  0.00000000E+00  0.00000000E+00
  0.00000000E+00  5.69378132E-01  0.00000000E+00  0.00000000E+00  0.00000000E+00
 -5.93138907E+00  0.00000000E+00  0.00000000E+00  0.00000000E+00  6.11256172E-01
  0.00000000E+00  0.00000000E+00  0.00000000E+00  5.69378132E-01  0.00000000E+00
  0.00000000E+00  0.00000000E+00 -5.93138907E+00  0.00000000E+00  0.00000000E+00
  0.00000000E+00  0.00000000E+00  0.00000000E+00  0.00000000E+00  0.00000000E+00
  0.00000000E+00  0.00000000E+00  0.00000000E+00  0.00000000E+00  0.00000000E+00
 -5.46253592E+00  0.00000000E+00  0.00000000E+00  0.00000000E+00  0.00000000E+00
  0.00000000E+00  0.00000000E+00  0.00000000E+00  0.00000000E+00  0.00000000E+00
  0.00000000E+00  0.00000000E+00  0.00000000E+00  0.00000000E+00 -5.46253592E+00
 -5.02485546E-04 -6.47263227E-01  0.00000000E+00  0.00000000E+00  1.36043339E+00
 -1.92092754E+00  0.00000000E+00  0.00000000E+00  3.54256191E+00 -3.23719104E+00
  0.00000000E+00  0.00000000E+00  0.00000000E+00  0.00000000E+00 -2.78120617E+01
 -6.47263227E-01 -2.64174972E+00  0.00000000E+00  0.00000000E+00  3.46426265E+00
 -4.06091989E+00  0.00000000E+00  0.00000000E+00  5.67333443E+00 -3.98178918E+00
  0.00000000E+00  0.00000000E+00  0.00000000E+00  0.00000000E+00 -5.87004358E+00
 -9.97950419E+00  0.00000000E+00  0.00000000E+00 -1.26954579E+00  0.00000000E+00
  0.00000000E+00  0.00000000E+00 -2.09258331E+00  0.00000000E+00  0.00000000E+00
  0.00000000E+00  2.64004118E+00  0.00000000E+00  0.00000000E+00  0.00000000E+00
  0.00000000E+00  0.00000000E+00 -8.79282363E+00  0.00000000E+00  0.00000000E+00
  0.00000000E+00 -1.26954579E+00  0.00000000E+00  0.00000000E+00  0.00000000E+00
 -2.09258331E+00  0.00000000E+00  0.00000000E+00  0.00000000E+00  2.64004118E+00
  0.00000000E+00  0.00000000E+00  0.00000000E+00  0.00000000E+00  0.00000000E+00
 -8.79282363E+00 -1.36043339E+00 -3.46426265E+00  0.00000000E+00  0.00000000E+00
  3.78816602E+00 -2.74482948E+00  0.00000000E+00  0.00000000E+00  1.52581032E+00
 -2.99996527E+00  0.00000000E+00  0.00000000E+00  0.00000000E+00  0.00000000E+00
 -1.33321504E-01 -9.27968218E-01  0.00000000E+00  0.00000000E+00 -9.32769134E+00
 -1.92092754E+00 -4.06091989E+00  0.00000000E+00  0.00000000E+00  2.74482948E+00
 -5.49833523E+00  0.00000000E+00  0.00000000E+00  5.13274155E+00 -2.03537213E+00
  0.00000000E+00  0.00000000E+00  0.00000000E+00  0.00000000E+00 -4.63339219E+00
 -7.63766710E+00  0.00000000E+00  0.00000000E+00 -8.84727354E-01 -8.00669799E+00
  0.00000000E+00  0.00000000E+00 -2.09258331E+00  0.00000000E+00  0.00000000E+00
  0.00000000E+00 -3.70370248E+00  0.00000000E+00  0.00000000E+00  0.00000000E+00
  1.85099369E+00  0.00000000E+00  0.00000000E+00  0.00000000E+00  0.00000000E+00
  0.00000000E+00 -4.10180440E+00  0.00000000E+00  0.00000000E+00  0.00000000E+00
 -5.43654974E+00  0.00000000E+00  0.00000000E+00  0.00000000E+00 -2.09258331E+00
  0.00000000E+00  0.00000000E+00  0.00000000E+00 -3.70370248E+00  0.00000000E+00
  0.00000000E+00  0.00000000E+00  1.85099369E+00  0.00000000E+00  0.00000000E+00
  0.00000000E+00  0.00000000E+00  0.00000000E+00 -4.10180440E+00  0.00000000E+00
  0.00000000E+00  0.00000000E+00 -5.43654974E+00 -3.54256191E+00 -5.67333443E+00
  0.00000000E+00  0.00000000E+00  1.52581032E+00 -5.13274155E+00  0.00000000E+00
  0.00000000E+00  2.21165359E-01  2.61248158E-02  0.00000000E+00  0.00000000E+00
  0.00000000E+00  0.00000000E+00 -1.95335945E-02 -6.07046053E-01  0.00000000E+00
  0.00000000E+00 -4.59647618E+00 -1.23162392E+00  0.00000000E+00  0.00000000E+00
 -6.54312340E+00 -3.23719104E+00 -3.98178918E+00  0.00000000E+00  0.00000000E+00
  2.99996527E+00 -2.03537213E+00  0.00000000E+00  0.00000000E+00 -2.61248158E-02
 -7.12408906E-01  0.00000000E+00  0.00000000E+00  0.00000000E+00  0.00000000E+00
 -9.77881402E-03 -4.80063410E-01  0.00000000E+00  0.00000000E+00 -1.14028082E+00
 -6.82074362E-01  0.00000000E+00  0.00000000E+00 -1.27525117E+00 -6.62554672E+00
  0.00000000E+00  0.00000000E+00 -2.64004118E+00  0.00000000E+00  0.00000000E+00
  0.00000000E+00 -1.85099369E+00  0.00000000E+00  0.00000000E+00  0.00000000E+00
  3.20938884E+00  0.00000000E+00  0.00000000E+00  0.00000000E+00  0.00000000E+00
  0.00000000E+00 -6.11256172E-01  0.00000000E+00  0.00000000E+00  0.00000000E+00
 -5.69378132E-01  0.00000000E+00  0.00000000E+00  0.00000000E+00 -5.93138907E+00
  0.00000000E+00  0.00000000E+00  0.00000000E+00 -2.64004118E+00  0.00000000E+00
  0.00000000E+00  0.00000000E+00 -1.85099369E+00  0.00000000E+00  0.00000000E+00
  0.00000000E+00  3.20938884E+00  0.00000000E+00  0.00000000E+00  0.00000000E+00
  0.00000000E+00  0.00000000E+00 -6.11256172E-01  0.00000000E+00  0.00000000E+00
  0.00000000E+00 -5.69378132E-01  0.00000000E+00  0.00000000E+00  0.00000000E+00
 -5.93138907E+00  0.00000000E+00  0.00000000E+00  0.00000000E+00  0.00000000E+00
  0.00000000E+00  0.00000000E+00  0.00000000E+00  0.00000000E+00  0.00000000E+00
  0.00000000E+00  0.00000000E+00  0.00000000E+00 -1.28109447E+00  0.00000000E+00
  0.00000000E+00  0.00000000E+00  0.00000000E+00  0.00000000E+00  0.00000000E+00
  0.00000000E+00  0.00000000E+00  0.00000000E+00  0.00000000E+00  0.00000000E+00
  0.00000000E+00  0.00000000E+00 -5.46253592E+00  0.00000000E+00  0.00000000E+00
  0.00000000E+00  0.00000000E+00  0.00000000E+00  0.00000000E+00  0.00000000E+00
  0.00000000E+00  0.00000000E+00  0.00000000E+00  0.00000000E+00  0.00000000E+00
  0.00000000E+00 -1.28109447E+00  0.00000000E+00  0.00000000E+00  0.00000000E+00
  0.00000000E+00  0.00000000E+00  0.00000000E+00  0.00000000E+00  0.00000000E+00
  0.00000000E+00  0.00000000E+00  0.00000000E+00  0.00000000E+00  0.00000000E+00
 -5.46253592E+00
Orbital Coefficients CCMAN2 Alpha          R   N=         784
 -7.04079011E-01 -1.44641638E-02 -4.04385218E-17  4.78780410E-17  1.24618838E-03
  2.68539780E-03 -2.30137451E-16 -5.30058873E-16 -7.56360071E-04 -1.22153219E-16
  1.09627585E-16 -3.16111240E-04  1.11817748E-17 -7.22014717E-15 -7.04079011E-01
 -1.44641638E-02 -2.24192650E-16 -1.72238992E-17 -1.24618838E-03  2.68539780E-03
  4.80157152E-16  5.33853501E-16  7.56360071E-04 -1.47361417E-16 -1.05257433E-16
 -3.16111240E-04 -7.74716999E-17 -7.21772603E-15  7.04583347E-01  1.67221867E-02
  8.59361934E-17  5.39056887E-17 -3.11704613E-03 -9.07660355E-03 -2.33467235E-16
 -6.43650205E-17  2.90706584E-03 -2.38585668E-17  1.66216443E-17  1.60552323E-03
  1.58753706E-16 -6.22744735E-15 -7.04583347E-01 -1.67221867E-02  1.92760989E-20
  1.11844471E-16 -3.11704613E-03  9.07660355E-03  3.02377662E-16 -1.21999060E-16
  2.90706584E-03  2.21319102E-16  2.90764393E-16 -1.60552323E-03  4.23845230E-17
  6.18042387E-15 -1.59873791E-01  3.39063952E-01  1.02032219E-16  3.99768764E-17
 -2.19859635E-01  1.89188040E-01  6.90718926E-17  3.20240645E-16 -3.49832612E-02
 -5.05362864E-17 -2.03092658E-16  2.82627485E-02  2.30983902E-17 -9.82104850E-12
 -1.59873791E-01  3.39063952E-01  5.46559973E-17  2.92955439E-16  2.19859635E-01
  1.89188040E-01 -1.05053034E-16 -2.47148360E-16  3.49832612E-02  1.18363226E-16
 -3.86479036E-18  2.82627485E-02 -1.97157387E-17 -9.82101187E-12 -5.37157378E-02
  1.04271460E-01 -6.38704386E-15 -1.29572397E-15  4.59225938E-01  3.23068591E-01
 -3.42782940E-15 -7.23270628E-16  2.03980535E-01  2.10934154E-17  1.79837414E-16
 -2.48398718E-02  6.82313924E-16 -9.49437829E-12 -5.37157378E-02  1.04271460E-01
 -6.33156022E-15 -1.49465757E-15 -4.59225938E-01  3.23068591E-01 -4.62092536E-15
 -9.57129907E-16 -2.03980535E-01 -8.06170925E-17 -4.12378505E-17 -2.48398718E-02
 -7.67096514E-16 -9.49444529E-12 -1.45002370E-01  3.32858648E-01 -1.13850470E-16
 -1.35331415E-16  2.19232994E-01  4.64927588E-01  1.11710849E-16 -2.47587397E-16
  8.66917484E-02 -1.98168727E-18  1.31608691E-16 -1.17387593E-02  4.17546543E-18
 -1.37851708E-11  1.45002370E-01 -3.32858648E-01  5.57766398E-17 -1.99620014E-16
  2.19232994E-01 -4.64927588E-01 -4.38838463E-16 -1.26743371E-16  8.66917484E-02
  1.75082009E-16  1.98060459E-16  1.17387593E-02 -3.42186755E-17  1.37852334E-11
  2.66172396E-16 -4.86684555E-16 -2.48329308E-16 -4.33246204E-01 -1.69632651E-15
 -4.10234719E-15  2.15629177E-17 -2.49491606E-01  1.29478720E-15  2.04595042E-16
  4.77030904E-02  5.92626730E-17 -6.69991944E-17 -1.30435951E-18 -5.58566668E-17
 -1.33450370E-15 -1.15190552E-16 -4.33246204E-01  1.95879184E-15  3.45303078E-15
 -1.27610807E-16 -2.49491606E-01  1.60402655E-15 -4.54699898E-17 -4.77030904E-02
  2.51084677E-16  5.20648918E-17 -5.98189129E-20  8.62578138E-16 -1.88657510E-15
 -4.33246204E-01  4.19950465E-17 -7.47859506E-15 -4.46755005E-15 -2.49491606E-01
  3.06228668E-16 -3.47502148E-15  3.00118778E-17  1.22827295E-16  4.30596701E-16
  4.77030904E-02 -2.79347528E-17  6.81536081E-16 -1.56463180E-15 -4.33246204E-01
  5.87900581E-16  6.68770535E-15 -5.24306310E-15 -2.49491606E-01 -1.22045166E-16
  2.77939835E-15 -4.75671045E-17 -4.11829537E-17  5.36146904E-16 -4.77030904E-02
 -1.13191445E-18 -1.89190636E-02 -2.90673066E-01 -3.88051816E-15  3.39720035E-16
  4.53280567E-01 -1.65928680E-02  3.18794454E-15 -3.82301014E-16 -9.58413108E-01
 -2.47876240E-17 -5.81383608E-17 -6.51544243E-02  9.16815264E-16 -2.28639907E-11
 -1.89190636E-02 -2.90673066E-01 -6.69687132E-15  1.83589349E-16 -4.53280567E-01
 -1.65928680E-02  6.96272435E-15 -3.01940529E-16  9.58413108E-01 -2.99380456E-16
  2.26014948E-16 -6.51544243E-02 -7.81761810E-16 -2.28642018E-11 -5.14146846E-02
  1.00333579E+00  8.50364213E-15  1.09183058E-14  2.63732826E-01 -8.89622803E-01
 -6.51101253E-15 -1.39952399E-14 -1.65410424E-01  4.61273138E-17  1.04341745E-15
  5.86005165E-02 -5.92991523E-16  3.26306744E-11 -5.14146846E-02  1.00333579E+00
  8.76711223E-15 -2.29565019E-15 -2.63732826E-01 -8.89622803E-01 -1.00703715E-14
  7.27600898E-15  1.65410424E-01  1.12255402E-15  5.15860054E-16  5.86005165E-02
  2.71167826E-16  3.26322251E-11 -1.88002434E-12 -6.16721480E-11 -2.29734490E-16
  1.19868080E-16  1.00262924E-11  5.48012130E-11 -2.11008434E-15  1.89036106E-16
 -2.90108410E-11 -2.96979699E-15 -4.36653356E-16  4.14009096E-12  6.27446723E-15
  6.51558986E-01 -1.87968688E-12 -6.17053609E-11  1.87495277E-15 -1.34433677E-16
 -1.00247718E-11  5.49509308E-11  1.75639664E-15 -1.82370998E-16  2.90747996E-11
 -2.96979699E-15 -4.04440455E-16  4.14172989E-12  2.66882736E-15  6.51558986E-01
 -5.36312642E-02 -7.14636322E-01  3.40373102E-16 -1.20775228E-16  3.58684169E-01
  3.03741323E-01  8.10922957E-16 -1.98876574E-15 -5.57575963E-01 -1.88637355E-16
  3.80776049E-15  8.44368585E-01 -1.06378139E-15 -7.17618792E-12 -5.36312642E-02
 -7.14636322E-01 -3.12676419E-16 -6.85129069E-17 -3.58684169E-01  3.03741323E-01
  1.05651340E-16  2.23304926E-15  5.57575963E-01  2.56108953E-16  1.76509496E-15
  8.44368585E-01 -2.98807075E-15 -7.17356250E-12  1.29844258E-16 -2.82977077E-15
  1.32824427E-15  1.51123038E-15  3.79007486E-16  1.44696018E-14 -1.06453684E-15
 -2.58484835E-15 -7.16076486E-15  6.51558986E-01  2.36074302E-16  1.11563958E-15
 -6.91042685E-16  2.96979667E-15  6.60223076E-18  1.27681800E-15 -8.78877783E-16
 -7.18357397E-16  4.00813576E-16 -1.36402535E-14  2.94950198E-16  1.79118404E-15
 -6.82188294E-15  6.51558986E-01 -1.00298300E-15 -1.40521017E-15 -2.71236265E-16
  2.96979702E-15 -7.97021594E-17 -3.75816033E-17 -4.33903148E-01 -2.84122104E-15
  8.05984018E-16  2.56109032E-15 -6.78473433E-01 -3.65702197E-15 -1.32561278E-15
 -3.64760571E-17 -3.45261568E-16  1.42684215E-17 -1.33705006E-02 -6.99712844E-17
 -5.06892041E-17  9.87565857E-16  4.33903148E-01  3.36820915E-15 -8.88875787E-18
 -3.10162554E-15  6.78473433E-01  3.20732879E-15 -1.12075897E-15  7.85779504E-17
  8.12763847E-17 -2.46970533E-16 -1.33705006E-02 -1.78169087E-17  1.52051568E-18
  9.07050632E-16 -7.27171425E-01 -4.77276723E-15  2.53134364E-16 -1.24434533E-14
  1.16945094E+00  8.08978129E-15  3.74852182E-15  6.89478608E-16 -4.70722732E-16
 -7.09821711E-16 -7.15394393E-02  9.94774190E-18 -1.35768735E-16 -4.73875748E-15
  7.27171425E-01  1.25660811E-15 -7.97281679E-16  1.42529943E-14 -1.16945094E+00
 -4.92116486E-15  7.80087462E-15  3.57352057E-16 -1.15812290E-15  7.42235720E-16
 -7.15394393E-02  2.28003854E-18  1.60241974E-16 -1.07641393E-15  2.59132086E-01
 -6.37437609E-16  1.31064406E-15  2.68858815E-16  4.67625299E-01  4.52579614E-15
  1.02664961E-15 -1.61762335E-15 -5.97409966E-15 -3.66466902E-15 -1.11316111E+00
  3.26307522E-15  7.23292175E-17  3.27702016E-15 -2.59132086E-01 -6.97686216E-16
  3.07188568E-15 -9.06622870E-16 -4.67625299E-01 -4.05104264E-15 -1.58888135E-15
  3.03006844E-16 -5.27577859E-15  5.16145155E-16 -1.11316111E+00  2.09782912E-15
 -1.07288987E-16  1.76610584E-16  1.97342033E-15 -4.33903148E-01 -8.07990089E-17
  8.14309693E-16  3.38621199E-15 -6.78473433E-01 -5.04539685E-16 -1.41682553E-16
 -1.33705006E-02  2.17773465E-17 -2.37789922E-16  9.94876619E-18  8.02382862E-17
 -2.08314237E-16 -1.34397278E-15  4.33903148E-01 -2.93061906E-16 -6.97853726E-16
 -3.44643815E-15  6.78473433E-01 -1.59846647E-16  4.44277132E-17 -1.33705006E-02
 -9.07443660E-17  1.63194820E-16  6.14737438E-18  3.43088304E-16 -1.07926566E-14
 -1.71823767E-15  7.27171425E-01 -3.09560721E-15  1.72061477E-14  2.06216270E-15
 -1.16945094E+00 -1.99168677E-15 -1.08419528E-15  7.15394393E-02 -1.00249950E-15
 -9.19271887E-16 -9.95286093E-18  7.47293772E-16 -9.08681232E-15  5.33013778E-15
 -7.27171425E-01  2.23370873E-15  5.41974706E-16 -4.53207520E-15  1.16945094E+00
 -5.48393724E-15  1.25230508E-16  7.15394393E-02 -9.31472304E-16 -8.99420082E-16
 -2.30040152E-18 -3.24482709E-16  5.29302566E-15 -1.13944312E-15  2.59132086E-01
 -1.07068398E-14  2.01489420E-14 -3.22434780E-15  4.67625299E-01 -1.05408096E-14
  8.00650977E-16 -1.11316111E+00  1.40363625E-14  4.89615706E-15 -3.04668681E-16
  2.11213809E-17 -8.05856579E-15 -3.62858327E-16 -2.59132086E-01 -1.27207706E-14
 -1.92753312E-14  4.75777475E-15 -4.67625299E-01 -7.39715358E-15 -1.80561597E-15
 -1.11316111E+00 -9.64263292E-15  5.30719335E-15 -1.99621685E-16 -3.46035052E-17
  1.58448217E-15 -2.33621342E-16 -1.15719116E-16  2.31179026E-16 -1.13978306E-14
 -4.07958382E-16 -1.88868323E-15  5.74069347E-15  7.79811801E-01 -9.90884194E-16
 -7.45026234E-16 -2.17193637E-15  2.14183217E-22 -1.27402988E-16 -3.45055387E-16
 -1.24423398E-15 -2.37876847E-15 -3.86768049E-16  1.05722717E-14  7.07552353E-16
  2.60770579E-15  5.86922414E-15 -7.79811801E-01  3.71362459E-15  1.37851971E-15
  1.65099182E-16 -1.75961447E-23 -1.01022104E-01  1.95258409E-01 -1.34803925E-16
 -7.85287520E-16 -5.98945867E-02  4.30371873E+00 -3.09941366E-16  7.79866663E-16
 -2.79990820E+00  7.65767057E-17 -2.53786135E-16  5.14853264E-02 -3.04684520E-17
 -8.74343598E-12  1.01022104E-01 -1.95258409E-01  1.23338831E-16 -4.26302678E-16
 -5.98945867E-02 -4.30371873E+00  1.70863004E-16  2.98827480E-16 -2.79990820E+00
 -5.36860017E-17 -3.35500739E-16 -5.14853264E-02  2.60525742E-16  8.74363732E-12
  3.70040986E-02  3.08683162E-01 -1.93294888E-15  3.10425372E-16  7.47080957E-01
 -1.13524714E+00  1.17060088E-15 -9.67206614E-16  3.54997657E-02 -6.83390381E-17
 -5.56335520E-16  2.08585509E-01 -2.65835037E-16  2.51304326E-11 -3.70040986E-02
 -3.08683162E-01 -2.16652943E-15 -1.57208176E-15  7.47080957E-01  1.13524714E+00
  2.28714851E-15  1.05929513E-15  3.54997657E-02 -6.47842487E-16  3.63482825E-16
 -2.08585509E-01  3.02450620E-16 -2.51368809E-11  2.79546214E-02 -1.31205250E+00
  2.31302021E-15  2.86202024E-15  1.92516091E-01  6.32380478E+00  4.28094087E-16
  4.81565014E-17 -2.90455863E+00 -4.83275805E-16  3.37484729E-15  2.41085613E-01
  2.55532709E-15 -2.94237578E-11 -2.79546214E-02  1.31205250E+00  5.94476919E-15
  4.73771237E-15  1.92516091E-01 -6.32380478E+00 -7.26103632E-15 -3.10879927E-15
 -2.90455863E+00 -1.70489024E-15 -5.10838169E-15 -2.41085613E-01 -1.82883191E-15
  2.94383836E-11  4.51470839E-12  3.99743562E-11  9.12473140E-17 -3.50174371E-17
  3.57343093E-11 -4.01303405E-10  3.62088839E-16 -3.57387234E-17  1.75898614E-10
  8.01121111E-26  6.86111548E-17 -2.72981964E-11 -1.03685694E-15 -7.79811801E-01
 -4.51447143E-12 -3.99740381E-11 -2.70192771E-16  3.60818925E-17  3.57358629E-11
  4.01304172E-10 -3.38742463E-16  3.25889459E-17  1.75896644E-10 -1.95356244E-25
  6.33240627E-17  2.72952216E-11 -5.73281468E-16  7.79811801E-01 -3.36451599E-02
  5.59643350E-01  7.36377337E-16 -2.93090641E-15 -1.08432858E+00  3.40952047E+00
  1.20004661E-15 -5.94321270E-15 -1.72850478E+00 -8.33492890E-17  1.18384999E-14
  1.20315922E+00 -2.09972976E-15 -1.59128049E-11  3.36451599E-02 -5.59643350E-01
  3.41705674E-16  2.36092196E-15 -1.08432858E+00 -3.40952047E+00 -2.17231532E-15
  5.83527592E-15 -1.72850478E+00 -8.47270759E-16  1.40202206E-14 -1.20315922E+00
 -2.69851075E-15  1.59118578E-11  1.54432258E-16 -3.27116566E-15 -1.61351465E-15
  6.34293753E-01 -1.66878524E-15  1.11307966E-15  2.08972293E-15 -6.19761580E-01
  1.71154000E-15 -5.85255239E-17 -1.00955744E-01 -3.62293513E-16 -3.14714033E-16
  6.11398665E-19  3.10411847E-16 -6.29357925E-15  1.47314213E-15  6.34293753E-01
  1.33529559E-15  7.40755316E-15 -2.48058241E-15 -6.19761580E-01 -7.69769728E-16
 -5.24748282E-16  1.00955744E-01  4.92150994E-16 -2.40152039E-16  1.12076883E-19
  1.74651654E-17 -1.06230059E-14 -2.32831570E-15 -2.90982065E-01  2.27869816E-15
  5.29227488E-14  5.53383142E-16  6.98237419E-02 -2.50936358E-14 -1.71812464E-15
 -5.95838411E-01  1.97140902E-15 -4.41203877E-15 -1.96343442E-17 -4.24767002E-16
  1.47140729E-14 -2.71541314E-15 -2.90982065E-01  6.39801738E-16 -5.71150373E-14
  1.16605605E-15  6.98237419E-02 -2.36654285E-14  3.26154133E-15  5.95838411E-01
  1.94023007E-16  5.30344608E-15 -1.42657537E-17  4.32638884E-16 -1.01706336E-14
  6.34293753E-01 -9.09953943E-16  1.70881896E-15 -1.05699349E-14 -6.19761580E-01
  2.81378527E-15  1.57301815E-15 -3.72928501E-16 -5.44077426E-16 -1.50716002E-15
 -1.00955744E-01  1.10986075E-16  4.45353263E-16 -1.90978915E-14  6.34293753E-01
  6.67478374E-16  7.64345514E-18  3.11979418E-14 -6.19761580E-01 -2.65817595E-15
  1.51444990E-14 -9.43495322E-17 -4.86045147E-16 -2.78070758E-16  1.00955744E-01
  5.09478210E-18 -2.63897266E-17 -5.33905997E-15 -2.90982065E-01  3.03176639E-15
  5.73344116E-16  3.08683079E-14  6.98237419E-02 -1.73569587E-15 -1.49127521E-14
 -1.47614544E-15  6.37034167E-15  2.28822023E-15 -5.95838411E-01  2.53299999E-15
 -3.30540026E-16  9.69120558E-15 -2.90982065E-01  1.77801364E-15 -1.59455279E-15
 -3.55461640E-14  6.98237419E-02  3.35113339E-16 -1.27683883E-14  1.13646532E-15
 -5.33086284E-15 -3.67608023E-16  5.95838411E-01  1.58758854E-15
Alpha  State Density                       R   N=         406
  1.03977830E+00 -7.25157960E-02  1.96962031E-01  1.03728042E-16  3.74635254E-16
  1.62181858E-01  2.88423731E-17  5.84657264E-17  1.38724180E-16  1.66159716E-01
 -1.83813877E-02  2.19014776E-02  2.27174626E-16  2.67783677E-17  2.74323596E-01
 -1.14700135E-01  2.09658267E-01 -2.82767981E-16  1.00694777E-15  1.88093492E-01
  3.25317949E-01 -1.47190071E-16  5.50444504E-16  1.18489934E-01 -6.74637682E-17
  6.97133704E-16  2.96214602E-16  7.94633196E-02  1.98353335E-16  2.83896565E-16
 -1.12737433E-16  1.19557761E-01  2.70297663E-16  1.03893588E-15 -1.60601398E-16