                  Welcome to Q-Chem
     A Quantum Leap Into The Future Of Chemistry


 Q-Chem 5.3 (devel), Q-Chem, Inc., Pleasanton, CA (2020)

 Yihan Shao,  Zhengting Gan,  E. Epifanovsky,  A. T. B. Gilbert,  M. Wormit,  
 J. Kussmann,  A. W. Lange,  A. Behn,  Jia Deng,  Xintian Feng,  D. Ghosh,  
 M. Goldey,  P. R. Horn,  L. D. Jacobson,  I. Kaliman,  T. Kus,  A. Landau,  
 Jie Liu,  E. I. Proynov,  R. M. Richard,  R. P. Steele,  E. J. Sundstrom,  
 H. L. Woodcock III,  P. M. Zimmerman,  D. Zuev,  B. Alam,  B. Albrecht,  
 E. Alguire,  S. A. Baeppler,  D. Barton,  Z. Benda,  Y. A. Bernard,  
 E. J. Berquist,  K. B. Bravaya,  H. Burton,  K. Carter-Fenk,  D. Casanova,  
 Chun-Min Chang,  Yunqing Chen,  A. Chien,  K. D. Closser,  M. P. Coons,  
 S. Coriani,  S. Dasgupta,  A. L. Dempwolff,  M. Diedenhofen,  Hainam Do,  
 R. G. Edgar,  Po-Tung Fang,  S. Faraji,  S. Fatehi,  Qingguo Feng,  
 J. Fosso-Tande,  J. Gayvert,  Qinghui Ge,  A. Ghysels,  G. Gidofalvi,  
 J. Gomes,  J. Gonthier,  A. Gunina,  D. Hait,  M. W. D. Hanson-Heine,  
 P. H. P. Harbach,  A. W. Hauser,  M. F. Herbst,  J. E. Herr,  
 E. G. Hohenstein,  Z. C. Holden,  Kerwin Hui,  B. C. Huynh,  T.-C. Jagau,  
 Hyunjun Ji,  B. Kaduk,  K. Khistyaev,  Jaehoon Kim,  P. Klunzinger,  K. Koh,  
 D. Kosenkov,  L. Koulias,  T. Kowalczyk,  C. M. Krauter,  A. Kunitsa,  
 Ka Un Lao,  A. Laurent,  K. V. Lawler,  Joonho Lee,  D. Lefrancois,  
 S. Lehtola,  D. S. Levine,  Yi-Pei Li,  You-Sheng Lin,  Fenglai Liu,  
 Kuan-Yu Liu,  E. Livshits,  M. Loipersberger,  A. Luenser,  P. Manohar,  
 E. Mansoor,  S. F. Manzer,  Shan-Ping Mao,  Yuezhi Mao,  N. Mardirossian,  
 A. V. Marenich,  T. Markovich,  L. A. Martinez-Martinez,  S. A. Maurer,  
 N. J. Mayhall,  S. C. McKenzie,  J.-M. Mewes,  P. Morgante,  A. F. Morrison,  
 J. W. Mullinax,  K. Nanda,  T. S. Nguyen-Beck,  R. Olivares-Amaya,  
 J. A. Parkhill,  S. K. Paul,  F. Pavosevic,  Zheng Pei,  T. M. Perrine,  
 F. Plasser,  P. Pokhilko,  S. Prager,  A. Prociuk,  E. Ramos,  B. Rana,  
 D. R. Rehn,  F. Rob,  M. Scheurer,  M. Schneider,  N. Sergueev,  
 S. M. Sharada,  S. Sharma,  D. W. Small,  T. Stauch,  C. J. Stein,  
 T. Stein,  Yu-Chuan Su,  S. P. Veccham,  Zhen Tao,  A. J. W. Thom,  
 A. Tkatchenko,  T. Tsuchimochi,  N. M. Tubman,  L. Vogt,  M. L. Vidal,  
 O. Vydrov,  M. A. Watson,  J. Wenzel,  M. de Wergifosse,  T. A. Wesolowski,  
 A. White,  J. Witte,  A. Yamada,  Jun Yang,  K. Yao,  S. Yeganeh,  
 S. R. Yost,  Zhi-Qiang You,  A. Zech,  Igor Ying Zhang,  Xing Zhang,  
 Yan Zhao,  Ying Zhu,  B. R. Brooks,  G. K. L. Chan,  C. J. Cramer,  
 M. S. Gordon,  W. J. Hehre,  A. Klamt,  M. W. Schmidt,  C. D. Sherrill,  
 D. G. Truhlar,  A. Aspuru-Guzik,  R. Baer,  A. T. Bell,  N. A. Besley,  
 Jeng-Da Chai,  A. E. DePrince, III,  R. A. DiStasio Jr.,  A. Dreuw,  
 B. D. Dunietz,  T. R. Furlani,  Chao-Ping Hsu,  Yousung Jung,  Jing Kong,  
 D. S. Lambrecht,  WanZhen Liang,  C. Ochsenfeld,  V. A. Rassolov,  
 L. V. Slipchenko,  J. E. Subotnik,  T. Van Voorhis,  J. M. Herbert,  
 A. I. Krylov,  P. M. W. Gill,  M. Head-Gordon

 Contributors to earlier versions of Q-Chem not listed above: 
 R. D. Adamson,  B. Austin,  J. Baker,  G. J. O. Beran,  K. Brandhorst,  
 S. T. Brown,  E. F. C. Byrd,  A. K. Chakraborty,  C.-L. Cheng,  
 Siu Hung Chien,  D. M. Chipman,  D. L. Crittenden,  H. Dachsel,  
 R. J. Doerksen,  A. D. Dutoi,  L. Fusti-Molnar,  W. A. Goddard III,  
 A. Golubeva-Zadorozhnaya,  S. R. Gwaltney,  G. Hawkins,  A. Heyden,  
 S. Hirata,  G. Kedziora,  F. J. Keil,  C. Kelley,  Jihan Kim,  R. A. King,  
 R. Z. Khaliullin,  P. P. Korambath,  W. Kurlancheek,  A. M. Lee,  M. S. Lee,  
 S. V. Levchenko,  Ching Yeh Lin,  D. Liotard,  R. C. Lochan,  I. Lotan,  
 P. E. Maslen,  N. Nair,  D. P. O'Neill,  D. Neuhauser,  E. Neuscamman,  
 C. M. Oana,  R. Olson,  B. Peters,  R. Peverati,  P. A. Pieniazek,  
 Y. M. Rhee,  J. Ritchie,  M. A. Rohrdanz,  E. Rosta,  N. J. Russ,  
 H. F. Schaefer III,  N. E. Schultz,  N. Shenvi,  A. C. Simmonett,  A. Sodt,  
 D. Stuck,  K. S. Thanthiriwatte,  V. Vanovschi,  Tao Wang,  A. Warshel,  
 C. F. Williams,  Q. Wu,  X. Xu,  W. Zhang

 Please cite Q-Chem as follows:
 Y. Shao et al., Mol. Phys. 113, 184-215 (2015)
 DOI: 10.1080/00268976.2014.952696

 Q-Chem 5.3.0 for Intel X86 EM64T Linux

 Parts of Q-Chem use Armadillo 9.800.1 (Horizon Scraper).
 http://arma.sourceforge.net/

 Q-Chem begins on Tue Apr 28 18:28:37 2020  

Host: node11
0

     Scratch files written to /scratch/gayverjr/eomea.3658465535.saved//
Processing $rem in /home/gayverjr/qchem_james/trunk/config/preferences:
Processing $rem in /home/gayverjr/.qchemrc:
Core orbitals will be frozen

Checking the input file for inconsistencies... 	...done.

--------------------------------------------------------------
User input:
--------------------------------------------------------------
$molecule
0	1
N        0.0     0.0     1.039
N        0.0     0.0     -1.039
Gh       0.0     0.0     0.0
$end

$rem
JOBTYPE	 sp
INPUT_BOHR 1
METHOD	 eom-ccsd
BASIS	 gen
GUI	 2 
EA_STATES	[0,0,10,0,0,0,0,0]
CC_TRANS_PROP 2
STATE_ANALYSIS 1
$end

$basis
N     0
S   10   1.00
      1.142000E+04           5.230000E-04
      1.712000E+03           4.045000E-03
      3.893000E+02           2.077500E-02
      1.100000E+02           8.072700E-02
      3.557000E+01           2.330740E-01
      1.254000E+01           4.335010E-01
      4.644000E+00           3.474720E-01
      1.293000E+00           4.126200E-02
      5.118000E-01          -8.508000E-03
      1.787000E-01           2.384000E-03
S   10   1.00
      1.142000E+04          -1.150000E-04
      1.712000E+03          -8.950000E-04
      3.893000E+02          -4.624000E-03
      1.100000E+02          -1.852800E-02
      3.557000E+01          -5.733900E-02
      1.254000E+01          -1.320760E-01
      4.644000E+00          -1.725100E-01
      1.293000E+00           1.518140E-01
      5.118000E-01           5.999440E-01
      1.787000E-01           3.874620E-01
S   1   1.00
      1.293000E+00           1.000000E+00
S   1   1.00
      1.787000E-01           1.000000E+00
S   1   1.00
      0.0576000              1.0000000
P   5   1.00
      2.663000E+01           1.467000E-02
      5.948000E+00           9.176400E-02
      1.742000E+00           2.986830E-01
      5.550000E-01           4.984870E-01
      1.725000E-01           3.370230E-01
P   1   1.00
      5.550000E-01           1.000000E+00
P   1   1.00
      1.725000E-01           1.000000E+00
P   1   1.00
      0.0491000              1.0000000
D   1   1.00
      1.654000E+00           1.000000E+00
D   1   1.00
      4.690000E-01           1.000000E+00
D   1   1.00
      0.1510000              1.0000000
F   1   1.00
      1.093000E+00           1.0000000
F   1   1.00
      0.3640000              1.0000000
****
Gh      0
S   1   1.00
      0.0288000              1.0000000
S   1   1.00
      0.0144000              1.0000000
S   1   1.00
      0.0072000              1.0000000
P   1   1.00
      0.0245500              1.0000000
P   1   1.00
      0.0122750              1.0000000
P   1   1.00
      0.0061375              1.0000000
D   1   1.00
      0.0755000              1.0000000
D   1   1.00
      0.0377500              1.0000000
D   1   1.00
      0.0188750              1.0000000
****
$end
--------------------------------------------------------------
 ----------------------------------------------------------------
             Standard Nuclear Orientation (Bohr)
    I     Atom           X                Y                Z
 ----------------------------------------------------------------
    1      N       0.0000000000     0.0000000000     1.0390000000
    2      N       0.0000000000     0.0000000000    -1.0390000000
    3      GH      0.0000000000     0.0000000000     0.0000000000
 ----------------------------------------------------------------
 Molecular Point Group                 D2h   NOp =  8
 Largest Abelian Subgroup              D2h   NOp =  8
 Nuclear Repulsion Energy =          23.58036574 hartrees
 There are        7 alpha and        7 beta electrons
 Requested basis set is non-standard
 There are 37 shells and 119 basis functions
 Total memory of 2000 MB is distributed as follows: 
   MEM_STATIC is set to 192 MB
   QALLOC/CCMAN JOB total memory use is  1808 MB
 Warning: actual memory use might exceed 2000 MB

 Total QAlloc Memory Limit   2000 MB
 Mega-Array Size       188 MB
 MEM_STATIC part       192 MB

                       Distance Matrix (Bohrs)
             N (  1)   N (  2)
   N (  2)  2.078000
   GH(  3)  1.039000  1.039000

 A cutoff of  1.0D-14 yielded    703 shell pairs
 There are      7347 function pairs (     10218 Cartesian)
 Smallest overlap matrix eigenvalue = 3.85E-05

 Scale SEOQF with 1.000000e-02/1.000000e-02/1.000000e-02

 Standard Electronic Orientation quadrupole field applied
 Guess MOs from core Hamiltonian diagonalization

 -----------------------------------------------------------------------
  General SCF calculation program by
  Eric Jon Sundstrom, Paul Horn, Yuezhi Mao, Dmitri Zuev, Alec White,
  David Stuck, Shaama M.S., Shane Yost, Joonho Lee, David Small,
  Daniel Levine, Susi Lehtola, Hugh Burton, Evgeny Epifanovsky,
  Bang C. Huynh
 -----------------------------------------------------------------------
 Hartree-Fock
 using 16 threads for integral computing
 -------------------------------------------------------
 OpenMP Integral computing Module                
 Release: version 2.0, May 2017, Q-Chem Inc. Pleasanton 
 -------------------------------------------------------
 A restricted SCF calculation will be
 performed using DIIS
 SCF converges when DIIS error is below 1.0e-08
 ---------------------------------------
  Cycle       Energy         DIIS error
 ---------------------------------------
    1     -93.7993394597      1.12e-01  
    2     -84.3346579871      4.25e-02  
    3    -106.9299178901      3.87e-02  
    4    -108.2755183683      2.10e-02  
    5    -108.9609745743      3.02e-03  
    6    -108.9842470497      3.07e-04  
    7    -108.9844385646      3.60e-05  
    8    -108.9844427232      9.90e-06  
    9    -108.9844429332      8.05e-07  
   10    -108.9844429360      1.38e-07  
   11    -108.9844429360      1.09e-08  
   12    -108.9844429362      1.15e-09  Convergence criterion met
 ---------------------------------------
 SCF time:   CPU 20.39s  wall 2.00s 
 SCF   energy in the final basis set =     -108.9844429362
 Total energy in the final basis set =     -108.9844429362


 ------------------------------------------------------------------------------

   CCMAN2: suite of methods based on coupled cluster
           and equation of motion theories.

   Components:
   * libvmm-1.3-trunk
     by Evgeny Epifanovsky, Ilya Kaliman.
   * libtensor-2.5-trunk
     by Evgeny Epifanovsky, Michael Wormit, Dmitry Zuev, Sam Manzer, 
        Ilya Kaliman.
   * libcc-2.5-trunk
     by Evgeny Epifanovsky, Arik Landau, Tomasz Kus, Kirill Khistyaev, 
        Dmitry Zuev, Prashant Manohar, Xintian Feng, Anna Krylov, 
        Matthew Goldey, Alec White, Thomas Jagau, Kaushik Nanda, 
        Anastasia Gunina, Alexander Kunitsa, Joonho Lee.

   CCMAN original authors:
   Anna I. Krylov, C. David Sherrill, Steven R. Gwaltney,
   Edward F. C. Byrd (2000)
   Sergey V. Levchenko, Lyudmila V. Slipchenko, Tao Wang,
   Ana-Maria C. Cristian (2003)
   Piotr A. Pieniazek, C. Melania Oana, Evgeny Epifanovsky (2007)
   Prashant Manohar (2009)

 ------------------------------------------------------------------------------


 Allocating and initializing 1808MB of RAM...
 Calculation will run on 16 cores.


 Alpha MOs, Restricted
 -- Occupied --                  
-15.686 -15.683  -1.471  -0.780  -0.634  -0.614  -0.614
  1 Ag    1 B1u   2 Ag    2 B1u   3 Ag    1 B3u   1 B2u                        
 -- Virtual --                   
  0.009   0.012   0.012   0.012   0.041   0.041   0.041   0.042
  4 Ag    2 B3u   2 B2u   3 B1u   3 B3u   3 B2u   4 B1u   5 Ag                 
  0.049   0.049   0.051   0.054   0.054   0.104   0.106   0.106
  1 B2g   1 B3g   6 Ag    7 Ag    1 B1g   5 B1u   4 B3u   4 B2u                
  0.118   0.119   0.119   0.140   0.157   0.157   0.172   0.172
  8 Ag    2 B2g   2 B3g   9 Ag   10 Ag    2 B1g   3 B2g   3 B3g                
  0.203   0.262   0.262   0.279   0.305   0.315   0.315   0.330
  6 B1u   5 B3u   5 B2u  11 Ag   12 Ag    4 B2g   4 B3g   7 B1u                
  0.354   0.354   0.531   0.542   0.542   0.580   0.582   0.582
 13 Ag    3 B1g  14 Ag    5 B2g   5 B3g   8 B1u   1 Au    9 B1u                
  0.583   0.583   0.650   0.715   0.715   0.719   0.719   0.788
  6 B3u   6 B2u  15 Ag   16 Ag    4 B1g   6 B2g   6 B3g  10 B1u                
  0.847   0.847   1.091   1.157   1.226   1.226   1.307   1.372
  7 B3u   7 B2u  11 B1u  17 Ag    7 B2g   7 B3g  18 Ag    8 B2u                
  1.372   1.477   1.477   1.547   1.547   1.571   1.571   1.666
  8 B3u   9 B3u   9 B2u  19 Ag    5 B1g   2 Au   12 B1u  13 B1u                
  1.720   1.720   1.777   1.777   1.820   1.820   1.826   2.002
  8 B2g   8 B3g  20 Ag    6 B1g   9 B2g   9 B3g  21 Ag   14 B1u                
  2.159   2.159   2.315   2.315   2.601   2.601   2.765   3.108
 10 B3u  10 B2u   3 Au   15 B1u  10 B2g  10 B3g  16 B1u  22 Ag                 
  3.389   3.389   4.045   4.360   4.360   4.448   4.448   4.527
 11 B3u  11 B2u  23 Ag   11 B2g  11 B3g  24 Ag    7 B1g  12 B3u                
  4.527   4.565   4.662   4.662   4.735   5.042   5.042   5.156
 12 B2u  17 B1u  13 B2u  13 B3u  25 Ag   12 B2g  12 B3g   4 Au                 
  5.156   5.197   5.225   5.225   5.534   5.534   5.592   5.592
 18 B1u  19 B1u  26 Ag    8 B1g  13 B2g  13 B3g  14 B3u  14 B2u                
  5.742   5.742   6.767   6.797   6.890   6.890  11.478  19.220
  5 Au   20 B1u  21 B1u  27 Ag   14 B2g  14 B3g  28 Ag   22 B1u                

 Beta MOs, Restricted
 -- Occupied --                  
-15.686 -15.683  -1.471  -0.780  -0.634  -0.614  -0.614
  1 Ag    1 B1u   2 Ag    2 B1u   3 Ag    1 B3u   1 B2u                        
 -- Virtual --                   
  0.009   0.012   0.012   0.012   0.041   0.041   0.041   0.042
  4 Ag    2 B3u   2 B2u   3 B1u   3 B3u   3 B2u   4 B1u   5 Ag                 
  0.049   0.049   0.051   0.054   0.054   0.104   0.106   0.106
  1 B2g   1 B3g   6 Ag    7 Ag    1 B1g   5 B1u   4 B3u   4 B2u                
  0.118   0.119   0.119   0.140   0.157   0.157   0.172   0.172
  8 Ag    2 B2g   2 B3g   9 Ag   10 Ag    2 B1g   3 B2g   3 B3g                
  0.203   0.262   0.262   0.279   0.305   0.315   0.315   0.330
  6 B1u   5 B3u   5 B2u  11 Ag   12 Ag    4 B2g   4 B3g   7 B1u                
  0.354   0.354   0.531   0.542   0.542   0.580   0.582   0.582
 13 Ag    3 B1g  14 Ag    5 B2g   5 B3g   8 B1u   1 Au    9 B1u                
  0.583   0.583   0.650   0.715   0.715   0.719   0.719   0.788
  6 B3u   6 B2u  15 Ag   16 Ag    4 B1g   6 B2g   6 B3g  10 B1u                
  0.847   0.847   1.091   1.157   1.226   1.226   1.307   1.372
  7 B3u   7 B2u  11 B1u  17 Ag    7 B2g   7 B3g  18 Ag    8 B2u                
  1.372   1.477   1.477   1.547   1.547   1.571   1.571   1.666
  8 B3u   9 B3u   9 B2u  19 Ag    5 B1g   2 Au   12 B1u  13 B1u                
  1.720   1.720   1.777   1.777   1.820   1.820   1.826   2.002
  8 B2g   8 B3g  20 Ag    6 B1g   9 B2g   9 B3g  21 Ag   14 B1u                
  2.159   2.159   2.315   2.315   2.601   2.601   2.765   3.108
 10 B3u  10 B2u   3 Au   15 B1u  10 B2g  10 B3g  16 B1u  22 Ag                 
  3.389   3.389   4.045   4.360   4.360   4.448   4.448   4.527
 11 B3u  11 B2u  23 Ag   11 B2g  11 B3g  24 Ag    7 B1g  12 B3u                
  4.527   4.565   4.662   4.662   4.735   5.042   5.042   5.156
 12 B2u  17 B1u  13 B2u  13 B3u  25 Ag   12 B2g  12 B3g   4 Au                 
  5.156   5.197   5.225   5.225   5.534   5.534   5.592   5.592
 18 B1u  19 B1u  26 Ag    8 B1g  13 B2g  13 B3g  14 B3u  14 B2u                
  5.742   5.742   6.767   6.797   6.890   6.890  11.478  19.220
  5 Au   20 B1u  21 B1u  27 Ag   14 B2g  14 B3g  28 Ag   22 B1u                

 Occupation and symmetry of molecular orbitals

 Point group: D2h (8 irreducible representations).

                           Ag   B1g  B2g  B3g  Au   B1u  B2u  B3u   All 
 ------------------------------------------------------------------------
 All molecular orbitals:
  - Alpha                  28   8    14   14   5    22   14   14    119 
  - Beta                   28   8    14   14   5    22   14   14    119 
 ------------------------------------------------------------------------
 Alpha orbitals:
  - Frozen occupied        1    0    0    0    0    1    0    0     2   
  - Active occupied        2    0    0    0    0    1    1    1     5   
  - Active virtual         25   8    14   14   5    20   13   13    112 
  - Frozen virtual         0    0    0    0    0    0    0    0     0   
 ------------------------------------------------------------------------
 Beta orbitals:
  - Frozen occupied        1    0    0    0    0    1    0    0     2   
  - Active occupied        2    0    0    0    0    1    1    1     5   
  - Active virtual         25   8    14   14   5    20   13   13    112 
  - Frozen virtual         0    0    0    0    0    0    0    0     0   
 ------------------------------------------------------------------------

 Import integrals:   CPU 0.00 s  wall 0.00 s

 Import integrals:   CPU 17.40 s  wall 1.57 s

 MP2 amplitudes:   CPU 1.64 s  wall 1.43 s

Running a double precision version
           CCSD T amplitudes will be solved using DIIS.

           Start     Size      MaxIter   EConv     TConv     
           3         7         100       1.00e-06  1.00e-04  
 ------------------------------------------------------------------------------
           Energy (a.u.)   Ediff      Tdiff       Comment
 ------------------------------------------------------------------------------
          -109.36471225                           
     1    -109.34587676   1.88e-02   5.57e-01     
     2    -109.36174705   1.59e-02   8.82e-02     
     3    -109.36007375   1.67e-03   3.23e-02     
     4    -109.36155974   1.49e-03   8.47e-03     Switched to DIIS steps.
     5    -109.36192586   3.66e-04   7.59e-03     
     6    -109.36193240   6.54e-06   1.19e-03     
     7    -109.36193286   4.57e-07   1.95e-04     
     8    -109.36193347   6.09e-07   6.38e-05     
 ------------------------------------------------------------------------------
          -109.36193347                           CCSD T converged.

End of double precision
 SCF energy                 = -108.98444294
 MP2 energy                 = -109.36471225
 CCSD correlation energy    =   -0.37749053
 CCSD total energy          = -109.36193347

 CCSD  T1^2 = 0.0035  T2^2 = 0.1228  Leading amplitudes:

 Amplitude    Orbitals with energies
 -0.0159       1 (B3u) A                 ->    7 (B3u) A                  
              -0.6136                          0.8474                     
 -0.0159       1 (B3u) B                 ->    7 (B3u) B                  
              -0.6136                          0.8474                     
  0.0159       1 (B2u) A                 ->    7 (B2u) A                  
              -0.6136                          0.8474                     
  0.0159       1 (B2u) B                 ->    7 (B2u) B                  
              -0.6136                          0.8474                     

 Amplitude    Orbitals with energies
 -0.0498       1 (B2u) A     1 (B2u) B   ->    3 (B3g) A     3 (B3g) B    
              -0.6136       -0.6136            0.1724        0.1724       
  0.0498       1 (B2u) A     1 (B2u) B   ->    3 (B3g) B     3 (B3g) A    
              -0.6136       -0.6136            0.1724        0.1724       
  0.0498       1 (B2u) B     1 (B2u) A   ->    3 (B3g) A     3 (B3g) B    
              -0.6136       -0.6136            0.1724        0.1724       
 -0.0498       1 (B2u) B     1 (B2u) A   ->    3 (B3g) B     3 (B3g) A    
              -0.6136       -0.6136            0.1724        0.1724       
 -0.0498       1 (B3u) A     1 (B3u) B   ->    3 (B2g) A     3 (B2g) B    
              -0.6136       -0.6136            0.1724        0.1724       
  0.0498       1 (B3u) A     1 (B3u) B   ->    3 (B2g) B     3 (B2g) A    
              -0.6136       -0.6136            0.1724        0.1724       
  0.0498       1 (B3u) B     1 (B3u) A   ->    3 (B2g) A     3 (B2g) B    
              -0.6136       -0.6136            0.1724        0.1724       
 -0.0498       1 (B3u) B     1 (B3u) A   ->    3 (B2g) B     3 (B2g) A    
              -0.6136       -0.6136            0.1724        0.1724       

 Computing CCSD intermediates for later calculations in double precision
 Finished.

Running a double precision version
           CCSD Lambda amplitudes will be solved using DIIS.
           Start     Size      MaxIter   EConv     LConv     
           3         7         100       1.00e-06  1.00e-04  
 ------------------------------------------------------------------------------
            Enorm      Ldiff       Comment
 ------------------------------------------------------------------------------
     1     3.27e-02   2.54e-02     
     2     6.03e-03   1.82e-03     
     3     1.89e-03   9.05e-04     
     4     5.79e-04   3.97e-04     Switched to DIIS steps.
     5     1.86e-04   1.19e-04     
     6     5.13e-05   4.46e-05     
     7     1.53e-05   8.51e-06     
     8     3.43e-06   2.61e-06     
     9     9.30e-07   2.84e-07     
 ------------------------------------------------------------------------------
                                   CCSD Lambda converged.

 CCSD calculation:   CPU 86.12 s  wall 13.60 s

        Solving for EOMEA-CCSD/MP2 B2g transitions.

Running a double precision version
      EOMEA-CCSD/MP2 right amplitudes will be solved using Davidson.
        Amplitudes will be solved using standard  algorithm.
     Hard-coded thresholds: 
     LinDepThresh=1.00e-15  NormThresh=1.00e-06  ReorthogonThresh=1.00e-02

      Roots     MaxVec    MaxIter   Precond   Conv      Shift    
      10        120       60        1         1.00e-05  0.00e+00  
 ------------------------------------------------------------------------------
      Iter ConvRoots NVecs ResNorm Current eigenvalues (eV)
 ------------------------------------------------------------------------------
      0    0      10    9.72e-02   1.3462   3.5118   5.5999   8.9659   14.9466   19.6847   33.6122   46.8295   49.5884   70.9878   
      1    0      20    2.27e-01   1.3318   3.1714   4.6621   8.4781   14.5103   19.2369   32.4590   33.6917   38.1479   46.1612   
      2    0      30    5.36e-02   1.3178   2.5700   4.1413   8.1667   14.1251   18.8335   21.6524   24.6189   24.6500   24.7816   
      3    1      40    1.58e-02   1.3171*  2.5389   4.1250   8.1446   13.9340   15.5228   18.1393   18.2417   18.9293   19.1410   
      4    3      49    1.09e-02   1.3171*  2.5364*  4.1235*  8.1406   12.6523   14.1400   15.2028   16.5529   16.9003   17.2931   
      5    4      56    9.72e-03   1.3171*  2.5364*  4.1235*  8.1404*  11.7630   13.9488   14.2538   14.6674   14.9438   15.3782   
      6    4      62    7.50e-03   1.3171*  2.5364*  4.1235*  8.1404*  11.2529   12.1740   12.9155   13.8650   14.0614   14.2101   
      7    4      68    8.55e-03   1.3171*  2.5364*  4.1235*  8.1403*  10.8178   11.6290   11.8927   12.5827   13.0735   13.6705   
      8    4      74    4.77e-03   1.3171*  2.5364*  4.1235*  8.1403*  10.4352   11.3718   11.4477   11.8075   12.4652   13.0343   
      9    4      80    2.54e-03   1.3171*  2.5365*  4.1235*  8.1403*  10.1935   11.0430   11.3439   11.5601   12.2932   12.5067   
      10   4      86    1.50e-03   1.3171*  2.5364*  4.1235*  8.1403*  10.0607   10.8685   11.3105   11.4837   12.1672   12.2241   
      11   4      92    4.03e-03   1.3171*  2.5364*  4.1235*  8.1403*  10.0064   10.8034   11.2799   11.3965   11.4832   11.8777   
      12   4      98    2.39e-03   1.3171*  2.5365*  4.1235*  8.1403*  9.9905   10.4040   10.7888   10.9799   11.3327   11.4370   
      13   4      104   6.35e-04   1.3171*  2.5365*  4.1235*  8.1403*  9.9874   10.0667   10.7837   10.8284   11.3216   11.3800   
      14   5      110   1.82e-04   1.3171*  2.5365*  4.1235*  8.1403*  9.9867*  10.0079   10.7794   10.7829   11.3194   11.3456   
      15   6      115   4.68e-05   1.3171*  2.5365*  4.1235*  8.1403*  9.9866*  9.9908   10.7658   10.7826*  11.3185   11.3364   
Found complex roots...
      16   6      119   1.56e-05   1.3171*  2.5365*  4.1235*  8.1403*  9.9861   9.9867   10.7624   10.7825*  11.3182*  11.3328   
      17   7      120   1.49e-05   1.3171*  2.5365*  4.1235*  8.1403*  9.9849   9.9866*  10.7622   10.7825*  11.3182*  11.3318   
      18   8      13    8.73e-06   1.3171*  2.5365*  4.1235*  8.1403*  9.9845*  9.9866*  10.7613   10.7825*  11.3181*  11.3305   
      19   8      15    6.53e-06   1.3171*  2.5365*  4.1235*  8.1403*  9.9844*  9.9865*  10.7606   10.7825*  11.3181*  11.3294   
      20   9      17    6.27e-06   1.3171*  2.5365*  4.1235*  8.1403*  9.9844*  9.9865*  10.7602*  10.7825*  11.3181*  11.3277   
      21   9      18    6.21e-06   1.3171*  2.5365*  4.1235*  8.1403*  9.9843*  9.9865*  10.7602*  10.7824*  11.3180*  11.3259   
      22   9      19    5.60e-06   1.3171*  2.5365*  4.1235*  8.1403*  9.9843*  9.9865*  10.7602*  10.7824*  11.3180*  11.3244   
      23   9      20    5.23e-06   1.3171*  2.5365*  4.1235*  8.1403*  9.9843*  9.9865*  10.7602*  10.7824*  11.3180*  11.3230   
      24   9      21    5.99e-06   1.3171*  2.5365*  4.1235*  8.1403*  9.9843*  9.9865*  10.7602*  10.7824*  11.3179*  11.3216   
      25   9      22    4.56e-06   1.3171*  2.5365*  4.1235*  8.1403*  9.9843*  9.9865*  10.7602*  10.7824*  11.3178*  11.3203   
      26   9      23    3.12e-06   1.3171*  2.5365*  4.1235*  8.1403*  9.9843*  9.9865*  10.7602*  10.7824*  11.3177*  11.3196   
      27   10     24    2.29e-06   1.3171*  2.5365*  4.1235*  8.1403*  9.9843*  9.9865*  10.7602*  10.7824*  11.3176*  11.3193*  

     Davidson procedure converged

 EOMEA transition 1/B2g
 Total energy = -109.31353246 a.u.  Excitation energy = 1.3171 eV.
 R1^2 = 0.9984  R2^2 = 0.0016  Res^2 = 5.49e-08
 Conv-d = yes

 Amplitude    Transitions between orbitals
  0.9968       infty       ->    1 (B2g) B                  
 -0.0592       infty       ->    2 (B2g) B                  
  0.0350       infty       ->    3 (B2g) B                  
  0.0075       infty       ->    4 (B2g) B                  

              Summary of significant orbitals:

               Number  Type             Irrep      Energy
               16      Vir  Beta        1 (B2g)      0.0493
               25      Vir  Beta        2 (B2g)      0.1186
               30      Vir  Beta        3 (B2g)      0.1724
               37      Vir  Beta        4 (B2g)      0.3153


 EOMEA transition 2/B2g
 Total energy = -109.26872049 a.u.  Excitation energy = 2.5365 eV.
 R1^2 = 0.9550  R2^2 = 0.0450  Res^2 = 9.27e-07
 Conv-d = yes

 Amplitude    Transitions between orbitals
  0.9030       infty       ->    2 (B2g) B                  
 -0.3571       infty       ->    3 (B2g) B                  
 -0.0733       infty       ->    4 (B2g) B                  
  0.0721       infty       ->    1 (B2g) B                  

              Summary of significant orbitals:

               Number  Type             Irrep      Energy
               16      Vir  Beta        1 (B2g)      0.0493
               25      Vir  Beta        2 (B2g)      0.1186
               30      Vir  Beta        3 (B2g)      0.1724
               37      Vir  Beta        4 (B2g)      0.3153


 EOMEA transition 3/B2g
 Total energy = -109.21039654 a.u.  Excitation energy = 4.1235 eV.
 R1^2 = 0.9808  R2^2 = 0.0192  Res^2 = 2.95e-07
 Conv-d = yes

 Amplitude    Transitions between orbitals
  0.9062       infty       ->    3 (B2g) B                  
  0.3889       infty       ->    2 (B2g) B                  
  0.0816       infty       ->    4 (B2g) B                  
 -0.0307       infty       ->    5 (B2g) B                  

              Summary of significant orbitals:

               Number  Type             Irrep      Energy
               25      Vir  Beta        2 (B2g)      0.1186
               30      Vir  Beta        3 (B2g)      0.1724
               37      Vir  Beta        4 (B2g)      0.3153
               43      Vir  Beta        5 (B2g)      0.5422


 EOMEA transition 4/B2g
 Total energy = -109.06278147 a.u.  Excitation energy = 8.1403 eV.
 R1^2 = 0.9779  R2^2 = 0.0221  Res^2 = 1.28e-07
 Conv-d = yes

 Amplitude    Transitions between orbitals
  0.9761       infty       ->    4 (B2g) B                  
 -0.1303       infty       ->    3 (B2g) B                  
 -0.0634       infty       ->    5 (B2g) B                  
  0.0508       infty       ->    2 (B2g) B                  

              Summary of significant orbitals:

               Number  Type             Irrep      Energy
               25      Vir  Beta        2 (B2g)      0.1186
               30      Vir  Beta        3 (B2g)      0.1724
               37      Vir  Beta        4 (B2g)      0.3153
               43      Vir  Beta        5 (B2g)      0.5422


 EOMEA transition 5/B2g
 Total energy = -108.99501600 a.u.  Excitation energy = 9.9843 eV.
 R1^2 = 0.0000  R2^2 = 1.0000  Res^2 = 3.50e-06
 Conv-d = yes

 Amplitude    Transitions between orbitals
  0.2813       1 (B3u) A   ->    2 (B3u) A     3 (B2g) B    
 -0.2813       1 (B3u) A   ->    3 (B2g) B     2 (B3u) A    
  0.2806       1 (B2u) A   ->    2 (B3u) A     3 (B3g) B    
 -0.2806       1 (B2u) A   ->    3 (B3g) B     2 (B3u) A    
  0.2790       1 (B3u) B   ->    3 (B2g) B     2 (B3u) B    
 -0.2790       1 (B3u) B   ->    2 (B3u) B     3 (B2g) B    
 -0.2788       1 (B2u) A   ->    3 (B3g) A     2 (B3u) B    
  0.2788       1 (B2u) A   ->    2 (B3u) B     3 (B3g) A    
 -0.2787       1 (B3u) A   ->    3 (B2g) A     2 (B3u) B    
  0.2787       1 (B3u) A   ->    2 (B3u) B     3 (B2g) A    
  0.2784       1 (B2u) B   ->    3 (B3g) B     2 (B3u) B    
 -0.2784       1 (B2u) B   ->    2 (B3u) B     3 (B3g) B    
 -0.2563       1 (B3u) A   ->    2 (B3u) A     2 (B2g) B    
  0.2563       1 (B3u) A   ->    2 (B2g) B     2 (B3u) A    
  0.2558       1 (B2u) A   ->    2 (B3u) A     2 (B3g) B    
 -0.2558       1 (B2u) A   ->    2 (B3g) B     2 (B3u) A    
 -0.2543       1 (B3u) B   ->    2 (B2g) B     2 (B3u) B    
  0.2543       1 (B3u) B   ->    2 (B3u) B     2 (B2g) B    
 -0.2542       1 (B2u) A   ->    2 (B3g) A     2 (B3u) B    
  0.2542       1 (B2u) A   ->    2 (B3u) B     2 (B3g) A    
  0.2540       1 (B3u) A   ->    2 (B2g) A     2 (B3u) B    
 -0.2540       1 (B3u) A   ->    2 (B3u) B     2 (B2g) A    
  0.2539       1 (B2u) B   ->    2 (B3g) B     2 (B3u) B    
 -0.2539       1 (B2u) B   ->    2 (B3u) B     2 (B3g) B    
  0.1207       1 (B3u) A   ->    2 (B3u) A     4 (B2g) B    
 -0.1207       1 (B3u) A   ->    4 (B2g) B     2 (B3u) A    
 -0.1203       1 (B2u) A   ->    2 (B3u) A     4 (B3g) B    
  0.1203       1 (B2u) A   ->    4 (B3g) B     2 (B3u) A    
  0.1197       1 (B3u) B   ->    4 (B2g) B     2 (B3u) B    
 -0.1197       1 (B3u) B   ->    2 (B3u) B     4 (B2g) B    
 -0.1195       1 (B3u) A   ->    4 (B2g) A     2 (B3u) B    
  0.1195       1 (B3u) A   ->    2 (B3u) B     4 (B2g) A    
  0.1195       1 (B2u) A   ->    4 (B3g) A     2 (B3u) B    
 -0.1195       1 (B2u) A   ->    2 (B3u) B     4 (B3g) A    
 -0.1194       1 (B2u) B   ->    4 (B3g) B     2 (B3u) B    
  0.1194       1 (B2u) B   ->    2 (B3u) B     4 (B3g) B    

              Summary of significant orbitals:

               Number  Type             Irrep      Energy
               7       Occ  Alpha       1 (B2u)     -0.6136
               6       Occ  Alpha       1 (B3u)     -0.6136
               7       Occ  Beta        1 (B2u)     -0.6136
               6       Occ  Beta        1 (B3u)     -0.6136
               25      Vir  Alpha       2 (B2g)      0.1186
               30      Vir  Alpha       3 (B2g)      0.1724
               37      Vir  Alpha       4 (B2g)      0.3153
               26      Vir  Alpha       2 (B3g)      0.1186
               31      Vir  Alpha       3 (B3g)      0.1724
               38      Vir  Alpha       4 (B3g)      0.3153
               9       Vir  Alpha       2 (B3u)      0.0118
               25      Vir  Beta        2 (B2g)      0.1186
               30      Vir  Beta        3 (B2g)      0.1724
               37      Vir  Beta        4 (B2g)      0.3153
               26      Vir  Beta        2 (B3g)      0.1186
               31      Vir  Beta        3 (B3g)      0.1724
               38      Vir  Beta        4 (B3g)      0.3153
               9       Vir  Beta        2 (B3u)      0.0118


 EOMEA transition 6/B2g
 Total energy = -108.99493516 a.u.  Excitation energy = 9.9865 eV.
 R1^2 = 0.0003  R2^2 = 0.9997  Res^2 = 1.34e-06
 Conv-d = yes

 Amplitude    Transitions between orbitals
 -0.3938       1 (B2u) A   ->    2 (B3u) A     3 (B3g) B    
  0.3938       1 (B2u) A   ->    3 (B3g) B     2 (B3u) A    
 -0.3916       1 (B3u) A   ->    2 (B3u) A     3 (B2g) B    
  0.3916       1 (B3u) A   ->    3 (B2g) B     2 (B3u) A    
 -0.3591       1 (B2u) A   ->    2 (B3u) A     2 (B3g) B    
  0.3591       1 (B2u) A   ->    2 (B3g) B     2 (B3u) A    
  0.3567       1 (B3u) A   ->    2 (B3u) A     2 (B2g) B    
 -0.3567       1 (B3u) A   ->    2 (B2g) B     2 (B3u) A    
  0.2005       1 (B2u) B   ->    3 (B3g) B     2 (B3u) B    
 -0.2005       1 (B2u) B   ->    2 (B3u) B     3 (B3g) B    
 -0.2004       1 (B2u) A   ->    3 (B3g) A     2 (B3u) B    
  0.2004       1 (B2u) A   ->    2 (B3u) B     3 (B3g) A    
  0.2000       1 (B3u) B   ->    3 (B2g) B     2 (B3u) B    
 -0.2000       1 (B3u) B   ->    2 (B3u) B     3 (B2g) B    
 -0.2000       1 (B3u) A   ->    3 (B2g) A     2 (B3u) B    
  0.2000       1 (B3u) A   ->    2 (B3u) B     3 (B2g) A    
  0.1827       1 (B2u) B   ->    2 (B3g) B     2 (B3u) B    
 -0.1827       1 (B2u) B   ->    2 (B3u) B     2 (B3g) B    
 -0.1827       1 (B2u) A   ->    2 (B3g) A     2 (B3u) B    
  0.1827       1 (B2u) A   ->    2 (B3u) B     2 (B3g) A    
 -0.1822       1 (B3u) B   ->    2 (B2g) B     2 (B3u) B    
  0.1822       1 (B3u) B   ->    2 (B3u) B     2 (B2g) B    
  0.1821       1 (B3u) A   ->    2 (B2g) A     2 (B3u) B    
 -0.1821       1 (B3u) A   ->    2 (B3u) B     2 (B2g) A    
  0.1687       1 (B2u) A   ->    2 (B3u) A     4 (B3g) B    
 -0.1687       1 (B2u) A   ->    4 (B3g) B     2 (B3u) A    
 -0.1680       1 (B3u) A   ->    2 (B3u) A     4 (B2g) B    
  0.1680       1 (B3u) A   ->    4 (B2g) B     2 (B3u) A    

              Summary of significant orbitals:

               Number  Type             Irrep      Energy
               7       Occ  Alpha       1 (B2u)     -0.6136
               6       Occ  Alpha       1 (B3u)     -0.6136
               7       Occ  Beta        1 (B2u)     -0.6136
               6       Occ  Beta        1 (B3u)     -0.6136
               25      Vir  Alpha       2 (B2g)      0.1186
               30      Vir  Alpha       3 (B2g)      0.1724
               26      Vir  Alpha       2 (B3g)      0.1186
               31      Vir  Alpha       3 (B3g)      0.1724
               9       Vir  Alpha       2 (B3u)      0.0118
               25      Vir  Beta        2 (B2g)      0.1186
               30      Vir  Beta        3 (B2g)      0.1724
               37      Vir  Beta        4 (B2g)      0.3153
               26      Vir  Beta        2 (B3g)      0.1186
               31      Vir  Beta        3 (B3g)      0.1724
               38      Vir  Beta        4 (B3g)      0.3153
               9       Vir  Beta        2 (B3u)      0.0118


 EOMEA transition 7/B2g
 Total energy = -108.96650453 a.u.  Excitation energy = 10.7602 eV.
 R1^2 = 0.0000  R2^2 = 1.0000  Res^2 = 3.77e-06
 Conv-d = yes

 Amplitude    Transitions between orbitals
 -0.2823       1 (B3u) A   ->    3 (B3u) A     3 (B2g) B    
  0.2823       1 (B3u) A   ->    3 (B2g) B     3 (B3u) A    
  0.2811       1 (B3u) A   ->    3 (B2g) A     3 (B3u) B    
 -0.2811       1 (B3u) A   ->    3 (B3u) B     3 (B2g) A    
 -0.2806       1 (B3u) B   ->    3 (B2g) B     3 (B3u) B    
  0.2806       1 (B3u) B   ->    3 (B3u) B     3 (B2g) B    
 -0.2757       1 (B2u) B   ->    3 (B3g) B     3 (B3u) B    
  0.2757       1 (B2u) B   ->    3 (B3u) B     3 (B3g) B    
  0.2753       1 (B2u) A   ->    3 (B3g) A     3 (B3u) B    
 -0.2753       1 (B2u) A   ->    3 (B3u) B     3 (B3g) A    
 -0.2752       1 (B2u) A   ->    3 (B3u) A     3 (B3g) B    
  0.2752       1 (B2u) A   ->    3 (B3g) B     3 (B3u) A    
  0.2587       1 (B3u) A   ->    3 (B3u) A     2 (B2g) B    
 -0.2587       1 (B3u) A   ->    2 (B2g) B     3 (B3u) A    
 -0.2575       1 (B3u) A   ->    2 (B2g) A     3 (B3u) B    
  0.2575       1 (B3u) A   ->    3 (B3u) B     2 (B2g) A    
  0.2572       1 (B3u) B   ->    2 (B2g) B     3 (B3u) B    
 -0.2572       1 (B3u) B   ->    3 (B3u) B     2 (B2g) B    
 -0.2521       1 (B2u) B   ->    2 (B3g) B     3 (B3u) B    
  0.2521       1 (B2u) B   ->    3 (B3u) B     2 (B3g) B    
 -0.2517       1 (B2u) A   ->    3 (B3u) A     2 (B3g) B    
  0.2517       1 (B2u) A   ->    2 (B3g) B     3 (B3u) A    
  0.2517       1 (B2u) A   ->    2 (B3g) A     3 (B3u) B    
 -0.2517       1 (B2u) A   ->    3 (B3u) B     2 (B3g) A    
 -0.1207       1 (B3u) A   ->    3 (B3u) A     4 (B2g) B    
  0.1207       1 (B3u) A   ->    4 (B2g) B     3 (B3u) A    
  0.1202       1 (B3u) A   ->    4 (B2g) A     3 (B3u) B    
 -0.1202       1 (B3u) A   ->    3 (B3u) B     4 (B2g) A    
 -0.1200       1 (B3u) B   ->    4 (B2g) B     3 (B3u) B    
  0.1200       1 (B3u) B   ->    3 (B3u) B     4 (B2g) B    
  0.1178       1 (B2u) B   ->    4 (B3g) B     3 (B3u) B    
 -0.1178       1 (B2u) B   ->    3 (B3u) B     4 (B3g) B    
 -0.1177       1 (B2u) A   ->    4 (B3g) A     3 (B3u) B    
  0.1177       1 (B2u) A   ->    3 (B3u) B     4 (B3g) A    
  0.1176       1 (B2u) A   ->    3 (B3u) A     4 (B3g) B    
 -0.1176       1 (B2u) A   ->    4 (B3g) B     3 (B3u) A    

              Summary of significant orbitals:

               Number  Type             Irrep      Energy
               7       Occ  Alpha       1 (B2u)     -0.6136
               6       Occ  Alpha       1 (B3u)     -0.6136
               7       Occ  Beta        1 (B2u)     -0.6136
               6       Occ  Beta        1 (B3u)     -0.6136
               25      Vir  Alpha       2 (B2g)      0.1186
               30      Vir  Alpha       3 (B2g)      0.1724
               37      Vir  Alpha       4 (B2g)      0.3153
               26      Vir  Alpha       2 (B3g)      0.1186
               31      Vir  Alpha       3 (B3g)      0.1724
               38      Vir  Alpha       4 (B3g)      0.3153
               12      Vir  Alpha       3 (B3u)      0.0411
               25      Vir  Beta        2 (B2g)      0.1186
               30      Vir  Beta        3 (B2g)      0.1724
               37      Vir  Beta        4 (B2g)      0.3153
               26      Vir  Beta        2 (B3g)      0.1186
               31      Vir  Beta        3 (B3g)      0.1724
               38      Vir  Beta        4 (B3g)      0.3153
               12      Vir  Beta        3 (B3u)      0.0411


 EOMEA transition 8/B2g
 Total energy = -108.96568578 a.u.  Excitation energy = 10.7824 eV.
 R1^2 = 0.0017  R2^2 = 0.9983  Res^2 = 1.40e-06
 Conv-d = yes

 Amplitude    Transitions between orbitals
 -0.3964       1 (B2u) A   ->    3 (B3u) A     3 (B3g) B    
  0.3964       1 (B2u) A   ->    3 (B3g) B     3 (B3u) A    
 -0.3922       1 (B3u) A   ->    3 (B3u) A     3 (B2g) B    
  0.3922       1 (B3u) A   ->    3 (B2g) B     3 (B3u) A    
 -0.3625       1 (B2u) A   ->    3 (B3u) A     2 (B3g) B    
  0.3625       1 (B2u) A   ->    2 (B3g) B     3 (B3u) A    
  0.3575       1 (B3u) A   ->    3 (B3u) A     2 (B2g) B    
 -0.3575       1 (B3u) A   ->    2 (B2g) B     3 (B3u) A    
  0.1988       1 (B2u) B   ->    3 (B3g) B     3 (B3u) B    
 -0.1988       1 (B2u) B   ->    3 (B3u) B     3 (B3g) B    
 -0.1983       1 (B2u) A   ->    3 (B3g) A     3 (B3u) B    
  0.1983       1 (B2u) A   ->    3 (B3u) B     3 (B3g) A    
 -0.1969       1 (B3u) A   ->    3 (B2g) A     3 (B3u) B    
  0.1969       1 (B3u) A   ->    3 (B3u) B     3 (B2g) A    
  0.1953       1 (B3u) B   ->    3 (B2g) B     3 (B3u) B    
 -0.1953       1 (B3u) B   ->    3 (B3u) B     3 (B2g) B    
  0.1819       1 (B2u) B   ->    2 (B3g) B     3 (B3u) B    
 -0.1819       1 (B2u) B   ->    3 (B3u) B     2 (B3g) B    
 -0.1812       1 (B2u) A   ->    2 (B3g) A     3 (B3u) B    
  0.1812       1 (B2u) A   ->    3 (B3u) B     2 (B3g) A    
  0.1788       1 (B3u) A   ->    2 (B2g) A     3 (B3u) B    
 -0.1788       1 (B3u) A   ->    3 (B3u) B     2 (B2g) A    
 -0.1788       1 (B3u) B   ->    2 (B2g) B     3 (B3u) B    
  0.1788       1 (B3u) B   ->    3 (B3u) B     2 (B2g) B    
  0.1693       1 (B2u) A   ->    3 (B3u) A     4 (B3g) B    
 -0.1693       1 (B2u) A   ->    4 (B3g) B     3 (B3u) A    
 -0.1679       1 (B3u) A   ->    3 (B3u) A     4 (B2g) B    
  0.1679       1 (B3u) A   ->    4 (B2g) B     3 (B3u) A    

              Summary of significant orbitals:

               Number  Type             Irrep      Energy
               7       Occ  Alpha       1 (B2u)     -0.6136
               6       Occ  Alpha       1 (B3u)     -0.6136
               7       Occ  Beta        1 (B2u)     -0.6136
               6       Occ  Beta        1 (B3u)     -0.6136
               25      Vir  Alpha       2 (B2g)      0.1186
               30      Vir  Alpha       3 (B2g)      0.1724
               26      Vir  Alpha       2 (B3g)      0.1186
               31      Vir  Alpha       3 (B3g)      0.1724
               12      Vir  Alpha       3 (B3u)      0.0411
               25      Vir  Beta        2 (B2g)      0.1186
               30      Vir  Beta        3 (B2g)      0.1724
               37      Vir  Beta        4 (B2g)      0.3153
               26      Vir  Beta        2 (B3g)      0.1186
               31      Vir  Beta        3 (B3g)      0.1724
               38      Vir  Beta        4 (B3g)      0.3153
               12      Vir  Beta        3 (B3u)      0.0411


 EOMEA transition 9/B2g
 Total energy = -108.94602037 a.u.  Excitation energy = 11.3176 eV.
 R1^2 = 0.0000  R2^2 = 1.0000  Res^2 = 5.29e-06
 Conv-d = yes

 Amplitude    Transitions between orbitals
  0.2666       1 (B2u) A   ->    2 (B3u) A     3 (B3g) B    
 -0.2666       1 (B2u) A   ->    3 (B3g) B     2 (B3u) A    
 -0.2645       1 (B3u) A   ->    2 (B3u) A     3 (B2g) B    
  0.2645       1 (B3u) A   ->    3 (B2g) B     2 (B3u) A    
  0.2607       1 (B2u) B   ->    3 (B3g) B     2 (B3u) B    
 -0.2607       1 (B2u) B   ->    2 (B3u) B     3 (B3g) B    
 -0.2602       1 (B2u) A   ->    3 (B3g) A     2 (B3u) B    
  0.2602       1 (B2u) A   ->    2 (B3u) B     3 (B3g) A    
 -0.2589       1 (B3u) B   ->    3 (B2g) B     2 (B3u) B    
  0.2589       1 (B3u) B   ->    2 (B3u) B     3 (B2g) B    
  0.2583       1 (B3u) A   ->    3 (B2g) A     2 (B3u) B    
 -0.2583       1 (B3u) A   ->    2 (B3u) B     3 (B2g) A    
  0.2518       1 (B2u) A   ->    2 (B3u) A     2 (B3g) B    
 -0.2518       1 (B2u) A   ->    2 (B3g) B     2 (B3u) A    
  0.2496       1 (B3u) A   ->    2 (B3u) A     2 (B2g) B    
 -0.2496       1 (B3u) A   ->    2 (B2g) B     2 (B3u) A    
  0.2461       1 (B2u) B   ->    2 (B3g) B     2 (B3u) B    
 -0.2461       1 (B2u) B   ->    2 (B3u) B     2 (B3g) B    
 -0.2455       1 (B2u) A   ->    2 (B3g) A     2 (B3u) B    
  0.2455       1 (B2u) A   ->    2 (B3u) B     2 (B3g) A    
  0.2444       1 (B3u) B   ->    2 (B2g) B     2 (B3u) B    
 -0.2444       1 (B3u) B   ->    2 (B3u) B     2 (B2g) B    
 -0.2438       1 (B3u) A   ->    2 (B2g) A     2 (B3u) B    
  0.2438       1 (B3u) A   ->    2 (B3u) B     2 (B2g) A    
 -0.1071       1 (B2u) A   ->    2 (B3u) A     4 (B3g) B    
  0.1071       1 (B2u) A   ->    4 (B3g) B     2 (B3u) A    
 -0.1063       1 (B3u) A   ->    2 (B3u) A     4 (B2g) B    
  0.1063       1 (B3u) A   ->    4 (B2g) B     2 (B3u) A    
 -0.1047       1 (B2u) B   ->    4 (B3g) B     2 (B3u) B    
  0.1047       1 (B2u) B   ->    2 (B3u) B     4 (B3g) B    
  0.1045       1 (B2u) A   ->    4 (B3g) A     2 (B3u) B    
 -0.1045       1 (B2u) A   ->    2 (B3u) B     4 (B3g) A    
 -0.1039       1 (B3u) B   ->    4 (B2g) B     2 (B3u) B    
  0.1039       1 (B3u) B   ->    2 (B3u) B     4 (B2g) B    
  0.1038       1 (B3u) A   ->    4 (B2g) A     2 (B3u) B    
 -0.1038       1 (B3u) A   ->    2 (B3u) B     4 (B2g) A    

              Summary of significant orbitals:

               Number  Type             Irrep      Energy
               7       Occ  Alpha       1 (B2u)     -0.6136
               6       Occ  Alpha       1 (B3u)     -0.6136
               7       Occ  Beta        1 (B2u)     -0.6136
               6       Occ  Beta        1 (B3u)     -0.6136
               25      Vir  Alpha       2 (B2g)      0.1186
               30      Vir  Alpha       3 (B2g)      0.1724
               37      Vir  Alpha       4 (B2g)      0.3153
               26      Vir  Alpha       2 (B3g)      0.1186
               31      Vir  Alpha       3 (B3g)      0.1724
               38      Vir  Alpha       4 (B3g)      0.3153
               9       Vir  Alpha       2 (B3u)      0.0118
               25      Vir  Beta        2 (B2g)      0.1186
               30      Vir  Beta        3 (B2g)      0.1724
               37      Vir  Beta        4 (B2g)      0.3153
               26      Vir  Beta        2 (B3g)      0.1186
               31      Vir  Beta        3 (B3g)      0.1724
               38      Vir  Beta        4 (B3g)      0.3153
               9       Vir  Beta        2 (B3u)      0.0118


 EOMEA transition 10/B2g
 Total energy = -108.94595856 a.u.  Excitation energy = 11.3193 eV.
 R1^2 = 0.0005  R2^2 = 0.9995  Res^2 = 6.19e-06
 Conv-d = yes

 Amplitude    Transitions between orbitals
 -0.2590       1 (B2u) A   ->    2 (B3u) A     3 (B3g) B    
  0.2590       1 (B2u) A   ->    3 (B3g) B     2 (B3u) A    
  0.2578       1 (B3u) A   ->    2 (B3u) A     3 (B2g) B    
 -0.2578       1 (B3u) A   ->    3 (B2g) B     2 (B3u) A    
  0.2571       1 (B2u) A   ->    2 (B2u) A     3 (B2g) B    
 -0.2571       1 (B2u) A   ->    3 (B2g) B     2 (B2u) A    
  0.2558       1 (B3u) A   ->    2 (B2u) A     3 (B3g) B    
 -0.2558       1 (B3u) A   ->    3 (B3g) B     2 (B2u) A    
 -0.2447       1 (B2u) A   ->    2 (B3u) A     2 (B3g) B    
  0.2447       1 (B2u) A   ->    2 (B3g) B     2 (B3u) A    
 -0.2431       1 (B2u) A   ->    2 (B2u) A     2 (B2g) B    
  0.2431       1 (B2u) A   ->    2 (B2g) B     2 (B2u) A    
 -0.2430       1 (B3u) A   ->    2 (B3u) A     2 (B2g) B    
  0.2430       1 (B3u) A   ->    2 (B2g) B     2 (B3u) A    
  0.2411       1 (B3u) A   ->    2 (B2u) A     2 (B3g) B    
 -0.2411       1 (B3u) A   ->    2 (B3g) B     2 (B2u) A    
 -0.1998       1 (B2u) A   ->    3 (B3g) A     2 (B3u) B    
  0.1998       1 (B2u) A   ->    2 (B3u) B     3 (B3g) A    
  0.1993       1 (B3u) A   ->    3 (B2g) A     2 (B3u) B    
 -0.1993       1 (B3u) A   ->    2 (B3u) B     3 (B2g) A    
  0.1989       1 (B2u) B   ->    3 (B3g) B     2 (B3u) B    
 -0.1989       1 (B2u) B   ->    2 (B3u) B     3 (B3g) B    
 -0.1984       1 (B3u) B   ->    3 (B2g) B     2 (B3u) B    
  0.1984       1 (B3u) B   ->    2 (B3u) B     3 (B2g) B    
 -0.1889       1 (B2u) A   ->    2 (B3g) A     2 (B3u) B    
  0.1889       1 (B2u) A   ->    2 (B3u) B     2 (B3g) A    
 -0.1881       1 (B3u) A   ->    2 (B2g) A     2 (B3u) B    
  0.1881       1 (B3u) A   ->    2 (B3u) B     2 (B2g) A    
  0.1878       1 (B2u) B   ->    2 (B3g) B     2 (B3u) B    
 -0.1878       1 (B2u) B   ->    2 (B3u) B     2 (B3g) B    
  0.1872       1 (B3u) B   ->    2 (B2g) B     2 (B3u) B    
 -0.1872       1 (B3u) B   ->    2 (B3u) B     2 (B2g) B    
  0.1040       1 (B2u) A   ->    2 (B3u) A     4 (B3g) B    
 -0.1040       1 (B2u) A   ->    4 (B3g) B     2 (B3u) A    
  0.1037       1 (B3u) A   ->    2 (B3u) A     4 (B2g) B    
 -0.1037       1 (B3u) A   ->    4 (B2g) B     2 (B3u) A    
  0.1030       1 (B2u) A   ->    2 (B2u) A     4 (B2g) B    
 -0.1030       1 (B2u) A   ->    4 (B2g) B     2 (B2u) A    
 -0.1030       1 (B3u) A   ->    2 (B2u) A     4 (B3g) B    
  0.1030       1 (B3u) A   ->    4 (B3g) B     2 (B2u) A    
 -0.1027       3 (Ag) A    ->    4 (Ag) A      3 (B2g) B    
  0.1027       3 (Ag) A    ->    3 (B2g) B     4 (Ag) A     

              Summary of significant orbitals:

               Number  Type             Irrep      Energy
               5       Occ  Alpha       3 (Ag)     -0.6343
               7       Occ  Alpha       1 (B2u)     -0.6136
               6       Occ  Alpha       1 (B3u)     -0.6136
               7       Occ  Beta        1 (B2u)     -0.6136
               6       Occ  Beta        1 (B3u)     -0.6136
               8       Vir  Alpha       4 (Ag)      0.0090
               25      Vir  Alpha       2 (B2g)      0.1186
               30      Vir  Alpha       3 (B2g)      0.1724
               26      Vir  Alpha       2 (B3g)      0.1186
               31      Vir  Alpha       3 (B3g)      0.1724
               10      Vir  Alpha       2 (B2u)      0.0118
               9       Vir  Alpha       2 (B3u)      0.0118
               25      Vir  Beta        2 (B2g)      0.1186
               30      Vir  Beta        3 (B2g)      0.1724
               37      Vir  Beta        4 (B2g)      0.3153
               26      Vir  Beta        2 (B3g)      0.1186
               31      Vir  Beta        3 (B3g)      0.1724
               38      Vir  Beta        4 (B3g)      0.3153
               9       Vir  Beta        2 (B3u)      0.0118


 EEs and amplitudes of EOMEA can not be exported to fchk file
Running a double precision version
      EOMEA-CCSD/MP2 left amplitudes will be solved using Davidson.
        Amplitudes will be solved using MOM  algorithm.
     Hard-coded thresholds: 
     LinDepThresh=1.00e-15  NormThresh=1.00e-06  ReorthogonThresh=1.00e-02

      Roots     MaxVec    MaxIter   Precond   Conv      Shift    
      10        120       60        1         1.00e-05  0.00e+00  
 ------------------------------------------------------------------------------
      Iter ConvRoots NVecs ResNorm Current eigenvalues (eV)
 ------------------------------------------------------------------------------
      0    0      10    8.50e-04   1.3171   2.5365   4.1235   8.1403   9.9843   9.9865   10.7602   10.7824   11.3176   11.3193   
      1    0      20    3.34e-04   1.3171   2.5365   4.1235   8.1403   9.9843   9.9865   10.7601   10.7824   11.3175   11.3192   
      2    6      30    3.75e-05   1.3171   2.5365   4.1235   8.1403   9.9843*  9.9865*  10.7601*  10.7824*  11.3175*  11.3192*  
      3    10     34    3.13e-06   1.3171*  2.5365*  4.1235*  8.1403*  9.9843*  9.9865*  10.7601*  10.7824*  11.3175*  11.3192*  

     Davidson procedure converged

 Excited state properties for  EOMEA-CCSD transition 1/B2g
 Dipole moment (a.u.): 0.000000 (X 0.000000, Y 0.000000, Z 0.000000)
 R-squared (a.u.): 170.865232 (XX 63.132841, YY 26.194480, ZZ 81.537911)
 Gauge origin (a.u.): (0.000000, 0.000000, 0.000000)
 Angular momentum (a.u.) against gauge origin: 
 (X 0.000000i, Y 0.000000i, Z 0.000000i)
 Traces of the OPDMs: Tr(AA) 7.000000, Tr(BB) 8.000000

State OPDM analysis using libwa module will be excecuted
 NOs (alpha)
   Occupation of frontier NOs:
      0.0002   0.9997
   Number of electrons:  7.000000
 NOs (beta)
   Occupation of frontier NOs:
      0.0012   0.9980
   Number of electrons:  8.000000
 NOs (spin-traced)
   Occupation of frontier NOs:
      0.9980   1.9994
   Number of electrons: 15.000000
   Number of unpaired electrons: n_u =  1.00276, n_u,nl =  1.00000
   NO participation ratio (PR_NO):  1.009479
 
 Mulliken Population Analysis
 Atom      Charge (e)        Spin (e)
 ------------------------------------
 1  N       -0.926201        0.866398
 2  N       -0.926201        0.866398
 3 GH        0.852402       -0.732796
 ------------------------------------
 Sum:       -1.000000        1.000000
 
 Multipole moment analysis of the density matrix
   Molecular charge:                      -1.000000
   Number of electrons:                   15.000000
     Center of electronic charge [Ang]: [  0.000000,   0.000000,   0.000000]
   Total nuclear charge:                  14.000000
     Center of nuclear charge [Ang]:    [  0.000000,   0.000000,   0.000000]
   Dipole moment [D]:                     0.000000
     Cartesian components [D]:          [ -0.000000,  -0.000000,  -0.000000]
   RMS size of the density [Ang]:         1.786004
     Cartesian components [Ang]:        [  1.085633,   0.699295,   1.233773]
 

 Excited state properties for  EOMEA-CCSD transition 2/B2g
 Dipole moment (a.u.): 0.000000 (X 0.000000, Y 0.000000, Z 0.000000)
 R-squared (a.u.): 73.370916 (XX 21.843932, YY 12.991852, ZZ 38.535131)
 Gauge origin (a.u.): (0.000000, 0.000000, 0.000000)
 Angular momentum (a.u.) against gauge origin: 
 (X 0.000000i, Y 0.000000i, Z 0.000000i)
 Traces of the OPDMs: Tr(AA) 7.000000, Tr(BB) 8.000000

State OPDM analysis using libwa module will be excecuted
 NOs (alpha)
   Occupation of frontier NOs:
      0.0036   0.9953
   Number of electrons:  7.000000
 NOs (beta)
   Occupation of frontier NOs:
      0.0161   0.9698
   Number of electrons:  8.000000
 NOs (spin-traced)
   Occupation of frontier NOs:
      0.0171   0.9715
   Number of electrons: 15.000000
   Number of unpaired electrons: n_u =  1.04334, n_u,nl =  1.00041
   NO participation ratio (PR_NO):  1.152850
 
 Mulliken Population Analysis
 Atom      Charge (e)        Spin (e)
 ------------------------------------
 1  N        0.537529       -0.614418
 2  N        0.537529       -0.614418
 3 GH       -2.075058        2.228836
 ------------------------------------
 Sum:       -1.000000        1.000000
 
 Multipole moment analysis of the density matrix
   Molecular charge:                      -1.000000
   Number of electrons:                   15.000000
     Center of electronic charge [Ang]: [  0.000000,   0.000000,   0.000000]
   Total nuclear charge:                  14.000000
     Center of nuclear charge [Ang]:    [  0.000000,   0.000000,   0.000000]
   Dipole moment [D]:                     0.000000
     Cartesian components [D]:          [ -0.000000,  -0.000000,  -0.000000]
   RMS size of the density [Ang]:         1.170355
     Cartesian components [Ang]:        [  0.638588,   0.492483,   0.848172]
 

 Excited state properties for  EOMEA-CCSD transition 3/B2g
 Dipole moment (a.u.): 0.000000 (X 0.000000, Y 0.000000, Z 0.000000)
 R-squared (a.u.): 122.189535 (XX 44.992790, YY 20.359167, ZZ 56.837578)
 Gauge origin (a.u.): (0.000000, 0.000000, 0.000000)
 Angular momentum (a.u.) against gauge origin: 
 (X 0.000000i, Y 0.000000i, Z 0.000000i)
 Traces of the OPDMs: Tr(AA) 7.000000, Tr(BB) 8.000000

State OPDM analysis using libwa module will be excecuted
 NOs (alpha)
   Occupation of frontier NOs:
      0.0031   0.9964
   Number of electrons:  7.000000
 NOs (beta)
   Occupation of frontier NOs:
      0.0152   0.9777
   Number of electrons:  8.000000
 NOs (spin-traced)
   Occupation of frontier NOs:
      0.9780   1.9946
   Number of electrons: 15.000000
   Number of unpaired electrons: n_u =  1.03257, n_u,nl =  1.00064
   NO participation ratio (PR_NO):  1.114134
 
 Mulliken Population Analysis
 Atom      Charge (e)        Spin (e)
 ------------------------------------
 1  N        2.035500       -2.102393
 2  N        2.035500       -2.102393
 3 GH       -5.071000        5.204787
 ------------------------------------
 Sum:       -1.000000        1.000000
 
 Multipole moment analysis of the density matrix
   Molecular charge:                      -1.000000
   Number of electrons:                   15.000000
     Center of electronic charge [Ang]: [ -0.000000,   0.000000,   0.000000]
   Total nuclear charge:                  14.000000
     Center of nuclear charge [Ang]:    [  0.000000,   0.000000,   0.000000]
   Dipole moment [D]:                     0.000000
     Cartesian components [D]:          [  0.000000,  -0.000000,  -0.000000]
   RMS size of the density [Ang]:         1.510332
     Cartesian components [Ang]:        [  0.916488,   0.616503,   1.030086]
 

 Excited state properties for  EOMEA-CCSD transition 4/B2g
 Dipole moment (a.u.): 0.000000 (X 0.000000, Y 0.000000, Z 0.000000)
 R-squared (a.u.): 104.064216 (XX 35.905255, YY 17.286145, ZZ 50.872816)
 Gauge origin (a.u.): (0.000000, 0.000000, 0.000000)
 Angular momentum (a.u.) against gauge origin: 
 (X 0.000000i, Y 0.000000i, Z 0.000000i)
 Traces of the OPDMs: Tr(AA) 7.000000, Tr(BB) 8.000000

State OPDM analysis using libwa module will be excecuted
 NOs (alpha)
   Occupation of frontier NOs:
      0.0048   0.9938
   Number of electrons:  7.000000
 NOs (beta)
   Occupation of frontier NOs:
      0.0140   0.9757
   Number of electrons:  8.000000
 NOs (spin-traced)
   Occupation of frontier NOs:
      0.9759   1.9931
   Number of electrons: 15.000000
   Number of unpaired electrons: n_u =  1.04363, n_u,nl =  1.00116
   NO participation ratio (PR_NO):  1.142996
 
 Mulliken Population Analysis
 Atom      Charge (e)        Spin (e)
 ------------------------------------
 1  N       -4.208113        4.145501
 2  N       -4.208113        4.145501
 3 GH        7.416225       -7.291001
 ------------------------------------
 Sum:       -1.000000        1.000000
 
 Multipole moment analysis of the density matrix
   Molecular charge:                      -1.000000
   Number of electrons:                   15.000000
     Center of electronic charge [Ang]: [  0.000000,  -0.000000,   0.000000]
   Total nuclear charge:                  14.000000
     Center of nuclear charge [Ang]:    [  0.000000,   0.000000,   0.000000]
   Dipole moment [D]:                     0.000000
     Cartesian components [D]:          [ -0.000000,   0.000000,  -0.000000]
   RMS size of the density [Ang]:         1.393818
     Cartesian components [Ang]:        [  0.818718,   0.568074,   0.974537]
 

 Excited state properties for  EOMEA-CCSD transition 5/B2g
 Dipole moment (a.u.): 0.000000 (X 0.000000, Y 0.000000, Z 0.000000)
 R-squared (a.u.): 335.065860 (XX 184.614125, YY 66.664990, ZZ 83.786745)
 Gauge origin (a.u.): (0.000000, 0.000000, 0.000000)
 Angular momentum (a.u.) against gauge origin: 
 (X 0.000000i, Y 0.000000i, Z 0.000000i)
 Traces of the OPDMs: Tr(AA) 7.000000, Tr(BB) 8.000000

State OPDM analysis using libwa module will be excecuted
 NOs (alpha)
   Occupation of frontier NOs:
      0.3393   0.6677
   Number of electrons:  7.000000
 NOs (beta)
   Occupation of frontier NOs:
      0.3323   0.6602
   Number of electrons:  8.000000
 NOs (spin-traced)
   Occupation of frontier NOs:
      0.9995   1.5038
   Number of electrons: 15.000000
   Number of unpaired electrons: n_u =  3.00000, n_u,nl =  3.22182
   NO participation ratio (PR_NO):  4.544863
 
 Mulliken Population Analysis
 Atom      Charge (e)        Spin (e)
 ------------------------------------
 1  N       -0.065802        0.340877
 2  N       -0.065802        0.340877
 3 GH       -0.868395        0.318245
 ------------------------------------
 Sum:       -1.000000        1.000000
 
 Multipole moment analysis of the density matrix
   Molecular charge:                      -1.000000
   Number of electrons:                   15.000000
     Center of electronic charge [Ang]: [ -0.000000,  -0.000000,   0.000000]
   Total nuclear charge:                  14.000000
     Center of nuclear charge [Ang]:    [  0.000000,   0.000000,   0.000000]
   Dipole moment [D]:                     0.000000
     Cartesian components [D]:          [  0.000000,   0.000000,  -0.000000]
   RMS size of the density [Ang]:         2.501040
     Cartesian components [Ang]:        [  1.856470,   1.115589,   1.250671]
 

 Excited state properties for  EOMEA-CCSD transition 6/B2g
 Dipole moment (a.u.): 0.000000 (X 0.000000, Y 0.000000, Z 0.000000)
 R-squared (a.u.): 336.968580 (XX 185.754957, YY 67.046791, ZZ 84.166832)
 Gauge origin (a.u.): (0.000000, 0.000000, 0.000000)
 Angular momentum (a.u.) against gauge origin: 
 (X 0.000000i, Y 0.000000i, Z 0.000000i)
 Traces of the OPDMs: Tr(AA) 7.000000, Tr(BB) 8.000000

State OPDM analysis using libwa module will be excecuted
 NOs (alpha)
   Occupation of frontier NOs:
      0.5866   0.5902
   Number of electrons:  7.000000
 NOs (beta)
   Occupation of frontier NOs:
      0.4090   0.4129
   Number of electrons:  8.000000
 NOs (spin-traced)
   Occupation of frontier NOs:
      0.9993   1.5023
   Number of electrons: 15.000000
   Number of unpaired electrons: n_u =  2.99925, n_u,nl =  3.22120
   NO participation ratio (PR_NO):  4.544675
 
 Mulliken Population Analysis
 Atom      Charge (e)        Spin (e)
 ------------------------------------
 1  N       -0.066829        0.677412
 2  N       -0.066829        0.677412
 3 GH       -0.866342       -0.354824
 ------------------------------------
 Sum:       -1.000000        1.000000
 
 Multipole moment analysis of the density matrix
   Molecular charge:                      -1.000000
   Number of electrons:                   15.000000
     Center of electronic charge [Ang]: [ -0.000000,  -0.000000,   0.000000]
   Total nuclear charge:                  14.000000
     Center of nuclear charge [Ang]:    [  0.000000,   0.000000,   0.000000]
   Dipole moment [D]:                     0.000000
     Cartesian components [D]:          [  0.000000,   0.000000,  -0.000000]
   RMS size of the density [Ang]:         2.508131
     Cartesian components [Ang]:        [  1.862197,   1.118779,   1.253505]
 

 Excited state properties for  EOMEA-CCSD transition 7/B2g
 Dipole moment (a.u.): 0.000000 (X 0.000000, Y 0.000000, Z 0.000000)
 R-squared (a.u.): 242.247808 (XX 128.667549, YY 48.063480, ZZ 65.516779)
 Gauge origin (a.u.): (0.000000, 0.000000, 0.000000)
 Angular momentum (a.u.) against gauge origin: 
 (X 0.000000i, Y 0.000000i, Z 0.000000i)
 Traces of the OPDMs: Tr(AA) 7.000000, Tr(BB) 8.000000

State OPDM analysis using libwa module will be excecuted
 NOs (alpha)
   Occupation of frontier NOs:
      0.3324   0.6629
   Number of electrons:  7.000000
 NOs (beta)
   Occupation of frontier NOs:
      0.3385   0.6629
   Number of electrons:  8.000000
 NOs (spin-traced)
   Occupation of frontier NOs:
      0.9953   1.4954
   Number of electrons: 15.000000
   Number of unpaired electrons: n_u =  3.00000, n_u,nl =  3.21590
   NO participation ratio (PR_NO):  4.571507
 
 Mulliken Population Analysis
 Atom      Charge (e)        Spin (e)
 ------------------------------------
 1  N       -0.177596        0.372014
 2  N       -0.177596        0.372014
 3 GH       -0.644808        0.255972
 ------------------------------------
 Sum:       -1.000000        1.000000
 
 Multipole moment analysis of the density matrix
   Molecular charge:                      -1.000000
   Number of electrons:                   15.000000
     Center of electronic charge [Ang]: [ -0.000000,  -0.000000,  -0.000000]
   Total nuclear charge:                  14.000000
     Center of nuclear charge [Ang]:    [  0.000000,   0.000000,   0.000000]
   Dipole moment [D]:                     0.000000
     Cartesian components [D]:          [  0.000000,   0.000000,   0.000000]
   RMS size of the density [Ang]:         2.126598
     Cartesian components [Ang]:        [  1.549851,   0.947247,   1.105941]
 

 Excited state properties for  EOMEA-CCSD transition 8/B2g
 Dipole moment (a.u.): 0.000000 (X 0.000000, Y 0.000000, Z 0.000000)
 R-squared (a.u.): 244.514032 (XX 130.048222, YY 48.502607, ZZ 65.963203)
 Gauge origin (a.u.): (0.000000, 0.000000, 0.000000)
 Angular momentum (a.u.) against gauge origin: 
 (X 0.000000i, Y 0.000000i, Z 0.000000i)
 Traces of the OPDMs: Tr(AA) 7.000000, Tr(BB) 8.000000

State OPDM analysis using libwa module will be excecuted
 NOs (alpha)
   Occupation of frontier NOs:
      0.5837   0.5900
   Number of electrons:  7.000000
 NOs (beta)
   Occupation of frontier NOs:
      0.4075   0.4162
   Number of electrons:  8.000000
 NOs (spin-traced)
   Occupation of frontier NOs:
      0.9952   1.4997
   Number of electrons: 15.000000
   Number of unpaired electrons: n_u =  2.99491, n_u,nl =  3.21440
   NO participation ratio (PR_NO):  4.560061
 
 Mulliken Population Analysis
 Atom      Charge (e)        Spin (e)
 ------------------------------------
 1  N       -0.171322        0.649429
 2  N       -0.171322        0.649429
 3 GH       -0.657355       -0.298857
 ------------------------------------
 Sum:       -1.000000        1.000000
 
 Multipole moment analysis of the density matrix
   Molecular charge:                      -1.000000
   Number of electrons:                   15.000000
     Center of electronic charge [Ang]: [ -0.000000,  -0.000000,  -0.000000]
   Total nuclear charge:                  14.000000
     Center of nuclear charge [Ang]:    [  0.000000,   0.000000,   0.000000]
   Dipole moment [D]:                     0.000000
     Cartesian components [D]:          [  0.000000,   0.000000,   0.000000]
   RMS size of the density [Ang]:         2.136522
     Cartesian components [Ang]:        [  1.558144,   0.951564,   1.109702]
 

 Excited state properties for  EOMEA-CCSD transition 9/B2g
 Dipole moment (a.u.): 0.000000 (X 0.000000, Y 0.000000, Z 0.000000)
 R-squared (a.u.): 329.984469 (XX 170.292597, YY 76.163517, ZZ 83.528355)
 Gauge origin (a.u.): (0.000000, 0.000000, 0.000000)
 Angular momentum (a.u.) against gauge origin: 
 (X 0.000000i, Y 0.000000i, Z 0.000000i)
 Traces of the OPDMs: Tr(AA) 7.000000, Tr(BB) 8.000000

State OPDM analysis using libwa module will be excecuted
 NOs (alpha)
   Occupation of frontier NOs:
      0.3011   0.6744
   Number of electrons:  7.000000
 NOs (beta)
   Occupation of frontier NOs:
      0.3463   0.5830
   Number of electrons:  8.000000
 NOs (spin-traced)
   Occupation of frontier NOs:
      0.8841   1.5168
   Number of electrons: 15.000000
   Number of unpaired electrons: n_u =  2.99997, n_u,nl =  3.18297
   NO participation ratio (PR_NO):  5.163471
 
 Mulliken Population Analysis
 Atom      Charge (e)        Spin (e)
 ------------------------------------
 1  N       -0.057404        0.355562
 2  N       -0.057404        0.355562
 3 GH       -0.885193        0.288876
 ------------------------------------
 Sum:       -1.000000        1.000000
 
 Multipole moment analysis of the density matrix
   Molecular charge:                      -1.000000
   Number of electrons:                   15.000000
     Center of electronic charge [Ang]: [ -0.000000,  -0.000000,   0.000000]
   Total nuclear charge:                  14.000000
     Center of nuclear charge [Ang]:    [  0.000000,   0.000000,   0.000000]
   Dipole moment [D]:                     0.000000
     Cartesian components [D]:          [  0.000000,   0.000000,  -0.000000]
   RMS size of the density [Ang]:         2.482003
     Cartesian components [Ang]:        [  1.783008,   1.192419,   1.248741]
 

 Excited state properties for  EOMEA-CCSD transition 10/B2g
 Dipole moment (a.u.): 0.000000 (X 0.000000, Y 0.000000, Z 0.000000)
 R-squared (a.u.): 335.126950 (XX 142.969860, YY 107.660992, ZZ 84.496098)
 Gauge origin (a.u.): (0.000000, 0.000000, 0.000000)
 Angular momentum (a.u.) against gauge origin: 
 (X 0.000000i, Y 0.000000i, Z 0.000000i)
 Traces of the OPDMs: Tr(AA) 7.000000, Tr(BB) 8.000000

State OPDM analysis using libwa module will be excecuted
 NOs (alpha)
   Occupation of frontier NOs:
      0.2847   0.6153
   Number of electrons:  7.000000
 NOs (beta)
   Occupation of frontier NOs:
      0.3795   0.4077
   Number of electrons:  8.000000
 NOs (spin-traced)
   Occupation of frontier NOs:
      0.6291   1.5157
   Number of electrons: 15.000000
   Number of unpaired electrons: n_u =  2.99895, n_u,nl =  3.24481
   NO participation ratio (PR_NO):  6.136712
 
 Mulliken Population Analysis
 Atom      Charge (e)        Spin (e)
 ------------------------------------
 1  N       -0.059401        0.605157
 2  N       -0.059401        0.605157
 3 GH       -0.881198       -0.210314
 ------------------------------------
 Sum:       -1.000000        1.000000
 
 Multipole moment analysis of the density matrix
   Molecular charge:                      -1.000000
   Number of electrons:                   15.000000
     Center of electronic charge [Ang]: [ -0.000000,  -0.000000,   0.000000]
   Total nuclear charge:                  14.000000
     Center of nuclear charge [Ang]:    [  0.000000,   0.000000,   0.000000]
   Dipole moment [D]:                     0.000000
     Cartesian components [D]:          [  0.000000,   0.000000,  -0.000000]
   RMS size of the density [Ang]:         2.501268
     Cartesian components [Ang]:        [  1.633720,   1.417701,   1.255954]
 

 EOMEA-CCSD calculation:   CPU 629.20 s  wall 97.90 s


 Start computing the transition properties

 ------------------------------------------------------------------------------
 State A: eomea_ccsd/b: 1/B2g
 State B: eomea_ccsd/b: 2/B2g
 Transition dipole moment (a.u.):
   A->B: 0.000000 (X 0.000000, Y 0.000000, Z 0.000000)
   B->A: 0.000000 (X 0.000000, Y 0.000000, Z 0.000000)
 Oscillator strength (a.u.): 0.000000
 Transition angular momentum against gauge origin (a.u.):
   A->B:  (X 0.000000i, Y 0.000000i, Z 0.000000i)
   B->A:  (X 0.000000i, Y 0.000000i, Z 0.000000i)
 Norm of one-particle transition density matrix:
   A->B: 0.978833;   B->A: 0.973142
   ||gamma^AB||*||gamma^BA||: 0.952544

State analysis of transition OPDM (A->B) using libwa module will be excecuted
 
 CT numbers (Mulliken)
   omega =     0.9581 (alpha:     0.0006, beta:     0.9575)
   <Phe> =     0.0028 (alpha:     0.9910, beta:     0.0022)
 
 Exciton analysis of the transition density matrix
 Total:
   Trans. dipole moment [D]:             0.000000
     Cartesian components [D]:         [ -0.000000,   0.000000,  -0.000000]
   <r_h> [Ang]:                        [  0.000000,  -0.000000,   0.000000]
   <r_e> [Ang]:                        [  0.000000,  -0.000000,   0.000000]
   |<r_e - r_h>| [Ang]:                  0.000000
   Hole size [Ang]:                      6.068829
     Cartesian components [Ang]:       [  3.938211,   2.273877,   4.018788]
   Electron size [Ang]:                  2.996881
     Cartesian components [Ang]:       [  1.953413,   1.128074,   1.973049]
   RMS electron-hole separation [Ang]:   6.763404
     Cartesian components [Ang]:       [  4.393287,   2.538234,   4.472140]
   Covariance(r_h, r_e) [Ang^2]:         0.034171
   Correlation coefficient:              0.001879
   Center-of-mass size [Ang]:            3.386751
     Cartesian components [Ang]:       [  2.199414,   1.269203,   2.240933]
 
 Alpha spin:
   Trans. dipole moment [D]:             0.000000
     Cartesian components [D]:         [ -0.000000,   0.000000,  -0.000000]
   <r_h> [Ang]:                        [ -0.000000,  -0.000000,   0.000000]
   <r_e> [Ang]:                        [ -0.000000,  -0.000000,   0.000000]
   |<r_e - r_h>| [Ang]:                  0.000000
   Hole size [Ang]:                      1.677337
     Cartesian components [Ang]:       [  0.880223,   0.878019,   1.125944]
   Electron size [Ang]:                  1.736373
     Cartesian components [Ang]:       [  0.923992,   0.913134,   1.152136]
   RMS electron-hole separation [Ang]:   1.976697
     Cartesian components [Ang]:       [  1.138271,   1.125358,   1.159845]
   Covariance(r_h, r_e) [Ang^2]:         0.960559
   Correlation coefficient:              0.329808
   Center-of-mass size [Ang]:            1.391902
     Cartesian components [Ang]:       [  0.700258,   0.696963,   0.980445]
 
 Beta spin:
   Trans. dipole moment [D]:             0.000000
     Cartesian components [D]:         [ -0.000000,   0.000000,  -0.000000]
   <r_h> [Ang]:                        [  0.000000,  -0.000000,   0.000000]
   <r_e> [Ang]:                        [  0.000000,  -0.000000,   0.000000]
   |<r_e - r_h>| [Ang]:                  0.000000
   Hole size [Ang]:                      6.070607
     Cartesian components [Ang]:       [  3.939398,   2.274490,   4.019963]
   Electron size [Ang]:                  2.997512
     Cartesian components [Ang]:       [  1.953894,   1.128197,   1.973462]
   RMS electron-hole separation [Ang]:   6.765366
     Cartesian components [Ang]:       [  4.394587,   2.538881,   4.473463]
   Covariance(r_h, r_e) [Ang^2]:         0.033583
   Correlation coefficient:              0.001846
   Center-of-mass size [Ang]:            3.387643
     Cartesian components [Ang]:       [  2.200041,   1.269484,   2.241508]

 ------------------------------------------------------------------------------
 State A: eomea_ccsd/b: 1/B2g
 State B: eomea_ccsd/b: 3/B2g
 Transition dipole moment (a.u.):
   A->B: 0.000000 (X 0.000000, Y 0.000000, Z 0.000000)
   B->A: 0.000000 (X 0.000000, Y 0.000000, Z 0.000000)
 Oscillator strength (a.u.): 0.000000
 Transition angular momentum against gauge origin (a.u.):
   A->B:  (X 0.000000i, Y 0.000000i, Z 0.000000i)
   B->A:  (X 0.000000i, Y 0.000000i, Z 0.000000i)
 Norm of one-particle transition density matrix:
   A->B: 0.990233;   B->A: 0.988215
   ||gamma^AB||*||gamma^BA||: 0.978562

State analysis of transition OPDM (A->B) using libwa module will be excecuted
 
 CT numbers (Mulliken)
   omega =     0.9806 (alpha:     0.0002, beta:     0.9803)
   <Phe> =     0.0008 (alpha:     0.9696, beta:     0.0006)
 
 Exciton analysis of the transition density matrix
 Total:
   Trans. dipole moment [D]:             0.000000
     Cartesian components [D]:         [ -0.000000,  -0.000000,   0.000000]
   <r_h> [Ang]:                        [  0.000000,  -0.000000,   0.000000]
   <r_e> [Ang]:                        [ -0.000000,  -0.000000,   0.000000]
   |<r_e - r_h>| [Ang]:                  0.000000
   Hole size [Ang]:                      6.074136
     Cartesian components [Ang]:       [  3.941709,   2.275779,   4.022299]
   Electron size [Ang]:                  4.819180
     Cartesian components [Ang]:       [  3.238562,   1.869834,   3.039726]
   RMS electron-hole separation [Ang]:   7.752443
     Cartesian components [Ang]:       [  5.100745,   2.945392,   5.040578]
   Covariance(r_h, r_e) [Ang^2]:         0.009626
   Correlation coefficient:              0.000329
   Center-of-mass size [Ang]:            3.877463
     Cartesian components [Ang]:       [  2.551132,   1.472715,   2.521419]
 
 Alpha spin:
   Trans. dipole moment [D]:             0.000000
     Cartesian components [D]:         [ -0.000000,  -0.000000,   0.000000]
   <r_h> [Ang]:                        [ -0.000000,  -0.000000,   0.000000]
   <r_e> [Ang]:                        [ -0.000000,  -0.000000,   0.000000]
   |<r_e - r_h>| [Ang]:                  0.000000
   Hole size [Ang]:                      1.545793
     Cartesian components [Ang]:       [  0.823971,   0.751235,   1.070605]
   Electron size [Ang]:                  1.850917
     Cartesian components [Ang]:       [  1.033998,   0.924801,   1.225350]
   RMS electron-hole separation [Ang]:   1.974450
     Cartesian components [Ang]:       [  1.175285,   1.071304,   1.170241]
   Covariance(r_h, r_e) [Ang^2]:         0.958458
   Correlation coefficient:              0.334992
   Center-of-mass size [Ang]:            1.390349
     Cartesian components [Ang]:       [  0.727129,   0.650294,   0.990693]
 
 Beta spin:
   Trans. dipole moment [D]:             0.000000
     Cartesian components [D]:         [ -0.000000,  -0.000000,   0.000000]
   <r_h> [Ang]:                        [  0.000000,  -0.000000,   0.000000]
   <r_e> [Ang]:                        [ -0.000000,  -0.000000,   0.000000]
   |<r_e - r_h>| [Ang]:                  0.000000
   Hole size [Ang]:                      6.074805
     Cartesian components [Ang]:       [  3.942153,   2.276018,   4.022739]
   Electron size [Ang]:                  4.819664
     Cartesian components [Ang]:       [  3.238904,   1.870000,   3.040026]
   RMS electron-hole separation [Ang]:   7.753297
     Cartesian components [Ang]:       [  5.101315,   2.945694,   5.041140]
   Covariance(r_h, r_e) [Ang^2]:         0.009403
   Correlation coefficient:              0.000321
   Center-of-mass size [Ang]:            3.877861
     Cartesian components [Ang]:       [  2.551408,   1.472855,   2.521670]

 ------------------------------------------------------------------------------
 State A: eomea_ccsd/b: 1/B2g
 State B: eomea_ccsd/b: 4/B2g
 Transition dipole moment (a.u.):
   A->B: 0.000000 (X 0.000000, Y 0.000000, Z 0.000000)
   B->A: 0.000000 (X 0.000000, Y 0.000000, Z 0.000000)
 Oscillator strength (a.u.): 0.000000
 Transition angular momentum against gauge origin (a.u.):
   A->B:  (X 0.000000i, Y 0.000000i, Z 0.000000i)
   B->A:  (X 0.000000i, Y 0.000000i, Z 0.000000i)
 Norm of one-particle transition density matrix:
   A->B: 0.988481;   B->A: 0.986220
   ||gamma^AB||*||gamma^BA||: 0.974859

State analysis of transition OPDM (A->B) using libwa module will be excecuted
 
 CT numbers (Mulliken)
   omega =     0.9771 (alpha:     0.0002, beta:     0.9769)
   <Phe> =     0.0004 (alpha:     0.6765, beta:     0.0002)
 
 Exciton analysis of the transition density matrix
 Total:
   Trans. dipole moment [D]:             0.000000
     Cartesian components [D]:         [  0.000000,  -0.000000,  -0.000000]
   <r_h> [Ang]:                        [  0.000000,  -0.000000,   0.000000]
   <r_e> [Ang]:                        [  0.000000,   0.000000,   0.000000]
   |<r_e - r_h>| [Ang]:                  0.000000
   Hole size [Ang]:                      6.074963
     Cartesian components [Ang]:       [  3.942250,   2.276071,   4.022852]
   Electron size [Ang]:                  4.274019
     Cartesian components [Ang]:       [  2.823702,   1.630325,   2.763328]
   RMS electron-hole separation [Ang]:   7.426874
     Cartesian components [Ang]:       [  4.848672,   2.799710,   4.879597]
   Covariance(r_h, r_e) [Ang^2]:         0.006978
   Correlation coefficient:              0.000269
   Center-of-mass size [Ang]:            3.714376
     Cartesian components [Ang]:       [  2.424853,   1.399870,   2.440706]
 
 Alpha spin:
   Trans. dipole moment [D]:             0.000000
     Cartesian components [D]:         [  0.000000,  -0.000000,  -0.000000]
   <r_h> [Ang]:                        [ -0.000000,  -0.000000,   0.000000]
   <r_e> [Ang]:                        [ -0.000000,  -0.000000,   0.000000]
   |<r_e - r_h>| [Ang]:                  0.000000
   Hole size [Ang]:                      1.278297
     Cartesian components [Ang]:       [  0.636720,   0.561193,   0.955873]
   Electron size [Ang]:                  2.350752
     Cartesian components [Ang]:       [  1.355280,   1.146384,   1.541121]
   RMS electron-hole separation [Ang]:   2.264198
     Cartesian components [Ang]:       [  1.361867,   1.181911,   1.369306]
   Covariance(r_h, r_e) [Ang^2]:         1.016742
   Correlation coefficient:              0.338355
   Center-of-mass size [Ang]:            1.516044
     Cartesian components [Ang]:       [  0.810819,   0.682157,   1.084262]
 
 Beta spin:
   Trans. dipole moment [D]:             0.000000
     Cartesian components [D]:         [  0.000000,  -0.000000,  -0.000000]
   <r_h> [Ang]:                        [  0.000000,  -0.000000,   0.000000]
   <r_e> [Ang]:                        [  0.000000,   0.000000,   0.000000]
   |<r_e - r_h>| [Ang]:                  0.000000
   Hole size [Ang]:                      6.075592
     Cartesian components [Ang]:       [  3.942666,   2.276303,   4.023263]
   Electron size [Ang]:                  4.274342
[...]
   <r_h> [Ang]:                        [ -0.000000,  -0.000000,   0.000000]
   <r_e> [Ang]:                        [ -0.000000,  -0.000000,  -0.000000]
   |<r_e - r_h>| [Ang]:                  0.000000
   Hole size [Ang]:                      5.557975
     Cartesian components [Ang]:       [  3.675302,   3.297122,   2.551906]
   Electron size [Ang]:                  6.240340
     Cartesian components [Ang]:       [  3.447740,   4.259718,   2.984918]
   RMS electron-hole separation [Ang]:   7.557185
     Cartesian components [Ang]:       [  4.558452,   4.590680,   3.906047]
   Covariance(r_h, r_e) [Ang^2]:         6.360944
   Correlation coefficient:              0.183399
   Center-of-mass size [Ang]:            4.542984
     Cartesian components [Ang]:       [  2.739070,   3.039658,   1.974001]
 
 Beta spin:
   Trans. dipole moment [D]:             0.000000
     Cartesian components [D]:         [ -0.000000,   0.000000,  -0.000000]
   <r_h> [Ang]:                        [  0.000000,  -0.000000,   0.000000]
   <r_e> [Ang]:                        [ -0.000000,  -0.000000,  -0.000000]
   |<r_e - r_h>| [Ang]:                  0.000000
   Hole size [Ang]:                      5.305956
     Cartesian components [Ang]:       [  3.959426,   2.551898,   2.442118]
   Electron size [Ang]:                  6.118603
     Cartesian components [Ang]:       [  4.252222,   3.294360,   2.916008]
   RMS electron-hole separation [Ang]:   7.112224
     Cartesian components [Ang]:       [  4.747730,   3.710948,   3.777786]
   Covariance(r_h, r_e) [Ang^2]:         7.503372
   Correlation coefficient:              0.231122
   Center-of-mass size [Ang]:            4.488798
     Cartesian components [Ang]:       [  3.353206,   2.289042,   1.914577]

 ------------------------------------------------------------------------------
 State A: eomea_ccsd/b: 8/B2g
 State B: eomea_ccsd/b: 9/B2g
 Transition dipole moment (a.u.):
   A->B: 0.000000 (X 0.000000, Y 0.000000, Z 0.000000)
   B->A: 0.000000 (X 0.000000, Y 0.000000, Z 0.000000)
 Oscillator strength (a.u.): 0.000000
 Transition angular momentum against gauge origin (a.u.):
   A->B:  (X 0.000000i, Y 0.000000i, Z 0.000000i)
   B->A:  (X 0.000000i, Y 0.000000i, Z 0.000000i)
 Norm of one-particle transition density matrix:
   A->B: 0.022317;   B->A: 0.022835
   ||gamma^AB||*||gamma^BA||: 0.000510

State analysis of transition OPDM (A->B) using libwa module will be excecuted
 
 CT numbers (Mulliken)
   omega =     0.0005 (alpha:     0.0003, beta:     0.0002)
   <Phe> =     0.3208 (alpha:     0.3230, beta:     0.3182)
 
 Exciton analysis of the transition density matrix
 Total:
   Trans. dipole moment [D]:             0.000000
     Cartesian components [D]:         [  0.000000,  -0.000000,   0.000000]
   <r_h> [Ang]:                        [  0.000000,  -0.000000,   0.000000]
   <r_e> [Ang]:                        [  0.000000,  -0.000000,  -0.000000]
   |<r_e - r_h>| [Ang]:                  0.000000
   Hole size [Ang]:                      4.494893
     Cartesian components [Ang]:       [  3.414714,   2.087685,   2.045814]
   Electron size [Ang]:                  7.698937
     Cartesian components [Ang]:       [  5.716016,   3.781060,   3.507760]
   RMS electron-hole separation [Ang]:   9.037281
     Cartesian components [Ang]:       [  6.829916,   4.316151,   4.049142]
   Covariance(r_h, r_e) [Ang^2]:        -1.097378
   Correlation coefficient:             -0.031711
   Center-of-mass size [Ang]:            4.395536
     Cartesian components [Ang]:       [  3.241083,   2.161049,   2.036168]
 
 Alpha spin:
   Trans. dipole moment [D]:             0.000000
     Cartesian components [D]:         [  0.000000,  -0.000000,   0.000000]
   <r_h> [Ang]:                        [  0.000000,  -0.000000,   0.000000]
   <r_e> [Ang]:                        [  0.000000,  -0.000000,  -0.000000]
   |<r_e - r_h>| [Ang]:                  0.000000
   Hole size [Ang]:                      4.440259
     Cartesian components [Ang]:       [  3.383349,   2.041014,   2.025615]
   Electron size [Ang]:                  7.621144
     Cartesian components [Ang]:       [  5.624761,   3.774303,   3.492640]
   RMS electron-hole separation [Ang]:   8.954254
     Cartesian components [Ang]:       [  6.714449,   4.344360,   4.027578]
   Covariance(r_h, r_e) [Ang^2]:        -1.190465
   Correlation coefficient:             -0.035179
   Center-of-mass size [Ang]:            4.342143
     Cartesian components [Ang]:       [  3.204924,   2.118298,   2.023729]
 
 Beta spin:
   Trans. dipole moment [D]:             0.000000
     Cartesian components [D]:         [  0.000000,  -0.000000,   0.000000]
   <r_h> [Ang]:                        [  0.000000,  -0.000000,  -0.000000]
   <r_e> [Ang]:                        [  0.000000,  -0.000000,  -0.000000]
   |<r_e - r_h>| [Ang]:                  0.000000
   Hole size [Ang]:                      4.555490
     Cartesian components [Ang]:       [  3.449613,   2.138905,   2.068272]
   Electron size [Ang]:                  7.785409
     Cartesian components [Ang]:       [  5.816832,   3.788637,   3.524669]
   RMS electron-hole separation [Ang]:   9.129660
     Cartesian components [Ang]:       [  6.957354,   4.284237,   4.073232]
   Covariance(r_h, r_e) [Ang^2]:        -0.992797
   Correlation coefficient:             -0.027993
   Center-of-mass size [Ang]:            4.454759
     Cartesian components [Ang]:       [  3.281233,   2.208093,   2.050052]

 ------------------------------------------------------------------------------
 State A: eomea_ccsd/b: 8/B2g
 State B: eomea_ccsd/b: 10/B2g
 Transition dipole moment (a.u.):
   A->B: 0.000000 (X 0.000000, Y 0.000000, Z 0.000000)
   B->A: 0.000000 (X 0.000000, Y 0.000000, Z 0.000000)
 Oscillator strength (a.u.): 0.000000
 Transition angular momentum against gauge origin (a.u.):
   A->B:  (X 0.000000i, Y 0.000000i, Z 0.000000i)
   B->A:  (X 0.000000i, Y 0.000000i, Z 0.000000i)
 Norm of one-particle transition density matrix:
   A->B: 0.022960;   B->A: 0.023129
   ||gamma^AB||*||gamma^BA||: 0.000531

State analysis of transition OPDM (A->B) using libwa module will be excecuted
 
 CT numbers (Mulliken)
   omega =     0.0005 (alpha:     0.0004, beta:     0.0001)
   <Phe> =     0.1884 (alpha:     0.1873, beta:     0.1918)
 
 Exciton analysis of the transition density matrix
 Total:
   Trans. dipole moment [D]:             0.000000
     Cartesian components [D]:         [ -0.000000,   0.000000,  -0.000000]
   <r_h> [Ang]:                        [  0.000000,  -0.000000,   0.000000]
   <r_e> [Ang]:                        [ -0.000000,   0.000000,  -0.000000]
   |<r_e - r_h>| [Ang]:                  0.000000
   Hole size [Ang]:                      4.037398
     Cartesian components [Ang]:       [  2.901514,   2.112652,   1.848918]
   Electron size [Ang]:                  7.714431
     Cartesian components [Ang]:       [  5.044075,   4.659547,   3.515448]
   RMS electron-hole separation [Ang]:   8.808844
     Cartesian components [Ang]:       [  5.885144,   5.220171,   3.963663]
   Covariance(r_h, r_e) [Ang^2]:        -0.891353
   Correlation coefficient:             -0.028618
   Center-of-mass size [Ang]:            4.302044
     Cartesian components [Ang]:       [  2.876110,   2.504954,   1.990171]
 
 Alpha spin:
   Trans. dipole moment [D]:             0.000000
     Cartesian components [D]:         [ -0.000000,   0.000000,  -0.000000]
   <r_h> [Ang]:                        [  0.000000,   0.000000,   0.000000]
   <r_e> [Ang]:                        [  0.000000,   0.000000,  -0.000000]
   |<r_e - r_h>| [Ang]:                  0.000000
   Hole size [Ang]:                      4.096458
     Cartesian components [Ang]:       [  2.933405,   2.159665,   1.874019]
   Electron size [Ang]:                  7.687838
     Cartesian components [Ang]:       [  4.833994,   4.839225,   3.509595]
   RMS electron-hole separation [Ang]:   8.802689
     Cartesian components [Ang]:       [  5.699765,   5.408165,   3.968849]
   Covariance(r_h, r_e) [Ang^2]:        -0.801754
   Correlation coefficient:             -0.025458
   Center-of-mass size [Ang]:            4.309302
     Cartesian components [Ang]:       [  2.804345,   2.594044,   1.994157]
 
 Beta spin:
   Trans. dipole moment [D]:             0.000000
     Cartesian components [D]:         [ -0.000000,   0.000000,  -0.000000]
   <r_h> [Ang]:                        [ -0.000000,  -0.000000,  -0.000000]
   <r_e> [Ang]:                        [ -0.000000,  -0.000000,  -0.000000]
   |<r_e - r_h>| [Ang]:                  0.000000
   Hole size [Ang]:                      3.856912
     Cartesian components [Ang]:       [  2.804794,   1.966612,   1.772382]
   Electron size [Ang]:                  7.792770
     Cartesian components [Ang]:       [  5.621181,   4.080350,   3.532751]
   RMS electron-hole separation [Ang]:   8.827074
     Cartesian components [Ang]:       [  6.403489,   4.617785,   3.948243]
   Covariance(r_h, r_e) [Ang^2]:        -1.157103
   Correlation coefficient:             -0.038498
   Center-of-mass size [Ang]:            4.280445
     Cartesian components [Ang]:       [  3.079140,   2.219781,   1.978301]

 ------------------------------------------------------------------------------
 State A: eomea_ccsd/b: 9/B2g
 State B: eomea_ccsd/b: 10/B2g
 Transition dipole moment (a.u.):
   A->B: 0.000000 (X 0.000000, Y 0.000000, Z 0.000000)
   B->A: 0.000000 (X 0.000000, Y 0.000000, Z 0.000000)
 Oscillator strength (a.u.): 0.000000
 Transition angular momentum against gauge origin (a.u.):
   A->B:  (X 0.000000i, Y 0.000000i, Z 0.000000i)
   B->A:  (X 0.000000i, Y 0.000000i, Z 0.000000i)
 Norm of one-particle transition density matrix:
   A->B: 0.614478;   B->A: 0.616535
   ||gamma^AB||*||gamma^BA||: 0.378848

State analysis of transition OPDM (A->B) using libwa module will be excecuted
 
 CT numbers (Mulliken)
   omega =     0.3776 (alpha:     0.1346, beta:     0.2430)
   <Phe> =     0.9992 (alpha:     0.9992, beta:     0.9992)
 
 Exciton analysis of the transition density matrix
 Total:
   Trans. dipole moment [D]:             0.000000
     Cartesian components [D]:         [ -0.000000,   0.000000,  -0.000000]
   <r_h> [Ang]:                        [ -0.000000,  -0.000000,   0.000000]
   <r_e> [Ang]:                        [ -0.000000,  -0.000000,   0.000000]
   |<r_e - r_h>| [Ang]:                  0.000000
   Hole size [Ang]:                      8.062430
     Cartesian components [Ang]:       [  6.152572,   3.753430,   3.613918]
   Electron size [Ang]:                  8.136858
     Cartesian components [Ang]:       [  6.212202,   3.783637,   3.647067]
   RMS electron-hole separation [Ang]:  11.339988
     Cartesian components [Ang]:       [  8.614433,   5.306474,   5.121347]
   Covariance(r_h, r_e) [Ang^2]:         1.307956
   Correlation coefficient:              0.019937
   Center-of-mass size [Ang]:            5.784184
     Cartesian components [Ang]:       [  4.435164,   2.676267,   2.573655]
 
 Alpha spin:
   Trans. dipole moment [D]:             0.000000
     Cartesian components [D]:         [ -0.000000,   0.000000,  -0.000000]
   <r_h> [Ang]:                        [ -0.000000,  -0.000000,   0.000000]
   <r_e> [Ang]:                        [ -0.000000,  -0.000000,   0.000000]
   |<r_e - r_h>| [Ang]:                  0.000000
   Hole size [Ang]:                      7.680591
     Cartesian components [Ang]:       [  5.738367,   3.764383,   3.448484]
   Electron size [Ang]:                  7.743139
     Cartesian components [Ang]:       [  5.791510,   3.785495,   3.476296]
   RMS electron-hole separation [Ang]:  10.708068
     Cartesian components [Ang]:       [  7.961172,   5.243061,   4.877783]
   Covariance(r_h, r_e) [Ang^2]:         2.142478
   Correlation coefficient:              0.036025
   Center-of-mass size [Ang]:            5.550510
     Cartesian components [Ang]:       [  4.170151,   2.716220,   2.457670]
 
 Beta spin:
   Trans. dipole moment [D]:             0.000000
     Cartesian components [D]:         [ -0.000000,   0.000000,  -0.000000]
   <r_h> [Ang]:                        [ -0.000000,  -0.000000,   0.000000]
   <r_e> [Ang]:                        [ -0.000000,  -0.000000,   0.000000]
   |<r_e - r_h>| [Ang]:                  0.000000
   Hole size [Ang]:                      8.266271
     Cartesian components [Ang]:       [  6.370343,   3.747352,   3.702340]
   Electron size [Ang]:                  8.346876
     Cartesian components [Ang]:       [  6.433317,   3.782607,   3.738268]
   RMS electron-hole separation [Ang]:  11.675180
     Cartesian components [Ang]:       [  8.955671,   5.341262,   5.251352]
   Covariance(r_h, r_e) [Ang^2]:         0.845880
   Correlation coefficient:              0.012260
   Center-of-mass size [Ang]:            5.909597
     Cartesian components [Ang]:       [  4.575305,   2.653886,   2.635681]


 All requested transition properties have been computed

 Transition Properties:   CPU 178.67 s  wall 25.43 s

 Total ccman2 time:   CPU 935.71 s  wall 142.58 s


 --------------------------------------------------------------
             Orbital Energies (a.u.) and Symmetries
 --------------------------------------------------------------

 Alpha MOs, Restricted
 -- Occupied --                  
-15.686 -15.683  -1.471  -0.780  -0.634  -0.614  -0.614
  1 Ag    1 B1u   2 Ag    2 B1u   3 Ag    1 B3u   1 B2u                        
 -- Virtual --                   
  0.009   0.012   0.012   0.012   0.041   0.041   0.041   0.042
  4 Ag    2 B3u   2 B2u   3 B1u   3 B3u   3 B2u   4 B1u   5 Ag                 
  0.049   0.049   0.051   0.054   0.054   0.104   0.106   0.106
  1 B2g   1 B3g   6 Ag    7 Ag    1 B1g   5 B1u   4 B3u   4 B2u                
  0.118   0.119   0.119   0.140   0.157   0.157   0.172   0.172
  8 Ag    2 B2g   2 B3g   9 Ag   10 Ag    2 B1g   3 B2g   3 B3g                
  0.203   0.262   0.262   0.279   0.305   0.315   0.315   0.330
  6 B1u   5 B3u   5 B2u  11 Ag   12 Ag    4 B2g   4 B3g   7 B1u                
  0.354   0.354   0.531   0.542   0.542   0.580   0.582   0.582
 13 Ag    3 B1g  14 Ag    5 B2g   5 B3g   8 B1u   1 Au    9 B1u                
  0.583   0.583   0.650   0.715   0.715   0.719   0.719   0.788
  6 B3u   6 B2u  15 Ag   16 Ag    4 B1g   6 B2g   6 B3g  10 B1u                
  0.847   0.847   1.091   1.157   1.226   1.226   1.307   1.372
  7 B3u   7 B2u  11 B1u  17 Ag    7 B2g   7 B3g  18 Ag    8 B2u                
  1.372   1.477   1.477   1.547   1.547   1.571   1.571   1.666
  8 B3u   9 B3u   9 B2u  19 Ag    5 B1g   2 Au   12 B1u  13 B1u                
  1.720   1.720   1.777   1.777   1.820   1.820   1.826   2.002
  8 B2g   8 B3g  20 Ag    6 B1g   9 B2g   9 B3g  21 Ag   14 B1u                
  2.159   2.159   2.315   2.315   2.601   2.601   2.765   3.108
 10 B3u  10 B2u   3 Au   15 B1u  10 B2g  10 B3g  16 B1u  22 Ag                 
  3.389   3.389   4.045   4.360   4.360   4.448   4.448   4.527
 11 B3u  11 B2u  23 Ag   11 B2g  11 B3g  24 Ag    7 B1g  12 B3u                
  4.527   4.565   4.662   4.662   4.735   5.042   5.042   5.156
 12 B2u  17 B1u  13 B2u  13 B3u  25 Ag   12 B2g  12 B3g   4 Au                 
  5.156   5.197   5.225   5.225   5.534   5.534   5.592   5.592
 18 B1u  19 B1u  26 Ag    8 B1g  13 B2g  13 B3g  14 B3u  14 B2u                
  5.742   5.742   6.767   6.797   6.890   6.890  11.478  19.220
  5 Au   20 B1u  21 B1u  27 Ag   14 B2g  14 B3g  28 Ag   22 B1u                

 Beta MOs, Restricted
 -- Occupied --                  
-15.686 -15.683  -1.471  -0.780  -0.634  -0.614  -0.614
  1 Ag    1 B1u   2 Ag    2 B1u   3 Ag    1 B3u   1 B2u                        
 -- Virtual --                   
  0.009   0.012   0.012   0.012   0.041   0.041   0.041   0.042
  4 Ag    2 B3u   2 B2u   3 B1u   3 B3u   3 B2u   4 B1u   5 Ag                 
  0.049   0.049   0.051   0.054   0.054   0.104   0.106   0.106
  1 B2g   1 B3g   6 Ag    7 Ag    1 B1g   5 B1u   4 B3u   4 B2u                
  0.118   0.119   0.119   0.140   0.157   0.157   0.172   0.172
  8 Ag    2 B2g   2 B3g   9 Ag   10 Ag    2 B1g   3 B2g   3 B3g                
  0.203   0.262   0.262   0.279   0.305   0.315   0.315   0.330
  6 B1u   5 B3u   5 B2u  11 Ag   12 Ag    4 B2g   4 B3g   7 B1u                
  0.354   0.354   0.531   0.542   0.542   0.580   0.582   0.582
 13 Ag    3 B1g  14 Ag    5 B2g   5 B3g   8 B1u   1 Au    9 B1u                
  0.583   0.583   0.650   0.715   0.715   0.719   0.719   0.788
  6 B3u   6 B2u  15 Ag   16 Ag    4 B1g   6 B2g   6 B3g  10 B1u                
  0.847   0.847   1.091   1.157   1.226   1.226   1.307   1.372
  7 B3u   7 B2u  11 B1u  17 Ag    7 B2g   7 B3g  18 Ag    8 B2u                
  1.372   1.477   1.477   1.547   1.547   1.571   1.571   1.666
  8 B3u   9 B3u   9 B2u  19 Ag    5 B1g   2 Au   12 B1u  13 B1u                
  1.720   1.720   1.777   1.777   1.820   1.820   1.826   2.002
  8 B2g   8 B3g  20 Ag    6 B1g   9 B2g   9 B3g  21 Ag   14 B1u                
  2.159   2.159   2.315   2.315   2.601   2.601   2.765   3.108
 10 B3u  10 B2u   3 Au   15 B1u  10 B2g  10 B3g  16 B1u  22 Ag                 
  3.389   3.389   4.045   4.360   4.360   4.448   4.448   4.527
 11 B3u  11 B2u  23 Ag   11 B2g  11 B3g  24 Ag    7 B1g  12 B3u                
  4.527   4.565   4.662   4.662   4.735   5.042   5.042   5.156
 12 B2u  17 B1u  13 B2u  13 B3u  25 Ag   12 B2g  12 B3g   4 Au                 
  5.156   5.197   5.225   5.225   5.534   5.534   5.592   5.592
 18 B1u  19 B1u  26 Ag    8 B1g  13 B2g  13 B3g  14 B3u  14 B2u                
  5.742   5.742   6.767   6.797   6.890   6.890  11.478  19.220
  5 Au   20 B1u  21 B1u  27 Ag   14 B2g  14 B3g  28 Ag   22 B1u                
 --------------------------------------------------------------

          Ground-State Mulliken Net Atomic Charges

     Atom                 Charge (a.u.)
  ----------------------------------------
      1 N                    -0.060750
      2 N                    -0.060750
      3 GH                    0.121499
  ----------------------------------------
  Sum of atomic charges =     0.000000

 -----------------------------------------------------------------
                    Cartesian Multipole Moments
 -----------------------------------------------------------------
    Charge (ESU x 10^10)
                -0.0000
    Dipole Moment (Debye)
         X       0.0000      Y       0.0000      Z      -0.0000
       Tot       0.0000
    Quadrupole Moments (Debye-Ang)
        XX     -10.4041     XY       0.0000     YY     -10.4041
        XZ       0.0000     YZ      -0.0000     ZZ     -11.6468
    Octopole Moments (Debye-Ang^2)
       XXX      -0.0000    XXY      -0.0000    XYY      -0.0000
       YYY      -0.0000    XXZ      -0.0000    XYZ      -0.0000
       YYZ      -0.0000    XZZ       0.0000    YZZ       0.0000
       ZZZ       0.0000
    Hexadecapole Moments (Debye-Ang^3)
      XXXX      -9.3317   XXXY       0.0000   XXYY      -3.1106
      XYYY       0.0000   YYYY      -9.3317   XXXZ       0.0000
      XXYZ      -0.0000   XYYZ       0.0000   YYYZ      -0.0000
      XXZZ      -6.3363   XYZZ       0.0000   YYZZ      -6.3363
      XZZZ       0.0000   YZZZ      -0.0000   ZZZZ     -31.6415
 -----------------------------------------------------------------
Archival summary:
1\1\node11\SP\ProcedureUnspecified\BasisUnspecified\2h1\gayverjr\TueApr2818:31:042020TueApr2818:31:042020\0\\#,ProcedureUnspecified,BasisUnspecified,\\0,1\N\Gh,1,1.039\N,2,1.039,1,180\\HF=-108.984443\\@

 Total job time:  147.26s(wall), 962.87s(cpu) 
 Tue Apr 28 18:31:04 2020

        *************************************************************
        *                                                           *
        *  Thank you very much for using Q-Chem.  Have a nice day.  *
        *                                                           *
        *************************************************************


