******************************************************
*** WorkDir and CurrDir are the same, not cleaned! ***
******************************************************
   This run of MOLCAS is using the pymolcas driver

                             OPE
                             OPE          NMOL  CASOP  ENMOLC A   SO
                 OPE        NMOLC        AS  OP EN  MO LC     AS  OP
                OPENM       OL CA        SO  PE NM  OL CA     SOP EN
                OP EN      MO   LC       AS  OP ENMOL  CASO   PENMOL
                OP  EN     MO   LC       AS  OP EN     MO     LC ASO
               OP   E  NMOL  C  AS       OP  EN MO     LC     AS  OP
               OP  E   NMO   LC AS        OPEN  MO     LCASOP EN   M
               O  PEN   MO  LCA  SO
            OPE   NMO   L   CAS    OP
        OPENMOL  CASOP     ENMOL   CASOPE
     OPENMOLCA   SOPENMOLCASOPEN   MOLCASOPE
    OPENMOLCAS   OP           EN   MOL    CAS
    OPENMOLCAS       OP  ENM        O     LCA
    OPENMOLCAS    OPEN  MOLCASO     P  E  NMO
    OPENMOLCAS     OP               E  N  MOL
    OPENMOLCA   SO           PENM   O  L  CAS    OPEN    MO    LCAS
    OPENMOLCA   SOP           ENM   O  L  CAS   OP  EN  MOLC  AS   O
    OPENMOLCA   SOPE           NM      O  LCA   S      OP  EN MO
    OPENMOLC                AS         O  PEN   M      OL  CA  SOPE
    OPENMO        LCASOPE  NMOL        C  ASO   P      ENMOLC     AS
    OPE     NMO      LCA  SO     P     E   NM   OL  CA SO  PE N   MO
          OPENMOLCA            SOPE   NMO        LCAS  O    P  ENMO
     OPENMOLCASOPENMOLCASOPENMOLCASOPENMOLCA
        OPENMOLCASOPENMOLCASOPENMOLCASOPE
            OPENMOLCASOPENMOLCASOPENM
               OPENMOLCASOPENMOLCA        version: 19.11
                   OPENMOLCASO
                       OPE                tag: 17-g792ff65

 OpenMolcas is free software; you can redistribute it and/or modify it
 under the terms of the GNU Lesser General Public License version 2.1.
 OpenMolcas is distributed in the hope that it will be useful, but it
 is provided "as is" and without any express or implied warranties.
 For more details see the full text of the license in the file
 LICENSE or in <http://www.gnu.org/licenses/>.

                 Copyright (C) The OpenMolcas Authors
           For the author list and the recommended citation,
                   consult the file CONTRIBUTORS.md

           *************************************************
           * pymolcas version py2.06                       *
           *   build 4d36a5e527230be6c379624704f71306      *
           *   (after the EMIL interpreter by V. Veryazov) *
           *************************************************

configuration info
------------------
C Compiler ID: GNU
C flags: -std=gnu99 -fopenmp
Fortran Compiler ID: GNU
Fortran flags: -cpp -fno-aggressive-loop-optimizations -fdefault-integer-8 -fopenmp
Definitions: _MOLCAS_;_I8_;_LINUX_;_MKL_;_DMRG_
Parallel: OFF (GA=OFF)


   ----------------------------------------------------------------------
  |
  |             Project: gs_mscaspt2
  |      Submitted from: /scratch/gayverjr/gs_mscaspt2.1900866910
  |        Scratch area: /scratch/gayverjr/gs_mscaspt2.1900866910
  |     Save outputs to: /home/gayverjr/OpenCAP/molcas_test/N2
  |              Molcas: /home/qcsoftware/OpenMolCas_james/qcmaquis_build
  |
  | Scratch area is NOT empty
  |
  |      MOLCAS_DRIVER = /home/qcsoftware/bin/pymolcas
  | MOLCAS_NEW_WORKDIR = YES
  |      MOLCAS_NPROCS = 16
  |      MOLCAS_SOURCE = /home/qcsoftware/OpenMolCas_james/Molcas_src
  |   MOLCAS_STRUCTURE = 0
  |
   ----------------------------------------------------------------------

++ ---------   Input file   ---------

&GATEWAY
Expert
Basis set
 N.aug-cc-pvtz
 N1  0.0  0.0  1.039
 N2  0.0  0.0  -1.039
End of Basis
Basis set
X ..... / inline
   0.00   2
    3    3
               0.0288
               0.0144
               0.0072
      1.00000000             0.00000000             0.00000000
      0.00000000             1.00000000             0.00000000
      0.00000000             0.00000000             1.00000000
     3    3
               0.02455
               0.012275
               0.0061375
     1.00000000             0.00000000             0.00000000
     0.00000000             1.00000000             0.00000000
     0.00000000             0.00000000             1.00000000
     3    3
               0.0755
               0.03775
               0.018875
      1.000000E+00           0.000000E+00           0.000000E+00           0.00000000
      0.000000E+00           1.000000E+00           0.000000E+00           0.00000000
      0.000000E+00           0.000000E+00           1.000000E+00           0.00000000
X1  0.000  0.000  0.000
End of basis

&SEWARD

>>> COPY /home/gayverjr/OpenCAP/molcas_test/N2/gs.RasOrb INPORB

&RASSCF
LUMORB
Title = cas 3,9 test
Inactive = 5
Ras2=10
TDM
NActEl=4,0,0
CIROOT= 10 10 1
Alter = 6
1 10 18
1 11 19
1 12 28
1 13 29
1 14 36
1 15 37

&CASPT2
MAXIter = 50
MULtistate = all

&RASSI
TRD1
Heff
EJOB

-- ----------------------------------

--- Start Module: gateway at Wed Apr 29 15:29:01 2020 ---

()()()()()()()()()()()()()()()()()()()()()()()()()()()()()()()()()()()()()()()()()()()()()()()()()()

                                              &GATEWAY

                                   only a single process is used
                       available to each process: 20 GB of memory, 16 threads
()()()()()()()()()()()()()()()()()()()()()()()()()()()()()()()()()()()()()()()()()()()()()()()()()()

 ###############################################################################
 ###############################################################################
 ###                                                                         ###
 ###                                                                         ###
 ###    WARNING:  EXPERT option is ON!                                       ###
 ###                                                                         ###
 ###                                                                         ###
 ###############################################################################
 ###############################################################################

++    Symmetry information:
      ---------------------

                    Character Table for C1 

                             E  
                    a        1  x, y, xy, Rz, z, xz, Ry, yz, Rx, I
--


++    Basis set information:
      ----------------------


      Basis set label: N.AUG-CC-PVTZ.........

      Electronic valence basis set:
      ------------------
      Associated Effective Charge   7.000000 au
      Associated Actual Charge      7.000000 au
      Nuclear Model: Point charge

      Shell  nPrim  nBasis  Cartesian Spherical Contaminant
         s      11       5        X                  
         p       6       4        X                  
         d       3       3                 X         
         f       2       2                 X         


      Basis set label: X...............................................................................

      Electronic valence basis set:
      ------------------
      Associated Effective Charge   0.000000 au
      Associated Actual Charge      0.000000 au
      Nuclear Model: Point charge

      Shell  nPrim  nBasis  Cartesian Spherical Contaminant
         s       3       3        X                  
         p       3       3        X                  
         d       3       3                 X         
--


++    Molecular structure info:
      -------------------------

                    ************************************************ 
                    **** Cartesian Coordinates / Bohr, Angstrom **** 
                    ************************************************ 

     Center  Label                x              y              z                     x              y              z
        1      N1               0.000000       0.000000       1.039000              0.000000       0.000000       0.549815
        2      N2               0.000000       0.000000      -1.039000              0.000000       0.000000      -0.549815
        3      X1               0.000000       0.000000       0.000000              0.000000       0.000000       0.000000

                    *************************************** 
                    *    InterNuclear Distances / Bohr    * 
                    *************************************** 

               1 N1            2 N2            3 X1    
    1 N1       0.000000
    2 N2       2.078000        0.000000
    3 X1       1.039000        1.039000        0.000000

                    ******************************************* 
                    *    InterNuclear Distances / Angstrom    * 
                    ******************************************* 

               1 N1            2 N2            3 X1    
    1 N1       0.000000
    2 N2       1.099630        0.000000
    3 X1       0.549815        0.549815        0.000000

                    ************************************** 
                    *    Valence Bond Angles / Degree    * 
                    ************************************** 
                          Atom centers                 Phi
                      2 N2       1 N1       3 X1         0.00
                      1 N1       2 N2       3 X1         0.00
                      1 N1       3 X1       2 N2       180.00
--


            Nuclear Potential Energy             23.58036574 au

--- Stop Module: gateway at Wed Apr 29 15:29:03 2020 /rc=_RC_ALL_IS_WELL_ ---
*** files: xmldump
    saved to directory /home/gayverjr/OpenCAP/molcas_test/N2
--- Module gateway spent 1 second ---

--- Start Module: seward at Wed Apr 29 15:29:03 2020 ---

()()()()()()()()()()()()()()()()()()()()()()()()()()()()()()()()()()()()()()()()()()()()()()()()()()

                                              &SEWARD

                                   only a single process is used
                       available to each process: 20 GB of memory, 16 threads
()()()()()()()()()()()()()()()()()()()()()()()()()()()()()()()()()()()()()()()()()()()()()()()()()()

               SEWARD will generate:
                  Multipole Moment integrals up to order  2
                  Kinetic Energy integrals
                  Nuclear Attraction integrals (point charge)
                  One-Electron Hamiltonian integrals
                  Velocity integrals
                  Orbital angular momentum around ( 0.0000  0.0000  0.0000 )
                  Velocity quadrupole around ( 0.0000  0.0000  0.0000 )
                  Two-Electron Repulsion integrals

                   Integrals are discarded if absolute value <: 0.10E-13
                   Integral cutoff threshold is set to       <: 0.10E-15

            Nuclear Potential Energy             23.58036574 au


      Basis set specifications :
      Symmetry species         a  
      Basis functions          119


  Input file to MOLDEN was generated!

--- Stop Module: seward at Wed Apr 29 15:29:07 2020 /rc=_RC_ALL_IS_WELL_ ---
*** files: gs_mscaspt2.GssOrb gs_mscaspt2.guessorb.h5 gs_mscaspt2.guessorb.molden xmldump
    saved to directory /home/gayverjr/OpenCAP/molcas_test/N2
--- Module seward spent 4 seconds ---

>>> COPY /home/gayverjr/OpenCAP/molcas_test/N2/gs.RasOrb INPORB

--- Start Module: rasscf at Wed Apr 29 15:29:08 2020 ---

()()()()()()()()()()()()()()()()()()()()()()()()()()()()()()()()()()()()()()()()()()()()()()()()()()

                                              &RASSCF

                                   only a single process is used
                       available to each process: 20 GB of memory, 16 threads
()()()()()()()()()()()()()()()()()()()()()()()()()()()()()()()()()()()()()()()()()()()()()()()()()()

 ###############################################################################
 ###############################################################################
 ###                                                                         ###
 ###                                                                         ###
 ###    WARNING: Had to guess the spin.                                      ###
 ###                                                                         ###
 ###                                                                         ###
 ###############################################################################
 ###############################################################################
  Warning: no input and no reliable source
  for the spin multiplicity.
  Guess ISPIN=                    1

      Header of the ONEINT file:
      --------------------------
      
      Integrals generated by seward 4.2.0  , Wed Apr 29 15:29:03 2020


      OrdInt status: non-squared


      Cartesian coordinates in Angstrom:
      -----------------------------------------------------
      No.  Label        X            Y            Z        
      -----------------------------------------------------
       1   N1         0.00000000   0.00000000   0.54981512
       2   N2         0.00000000   0.00000000  -0.54981512
       3   X1         0.00000000   0.00000000   0.00000000
      -----------------------------------------------------
      Nuclear repulsion energy =   23.58036574

++    Wave function specifications:
      -----------------------------

      Number of closed shell electrons          10
      Number of electrons in active shells       4
      Max number of holes in RAS1 space          0
      Max nr of electrons in RAS3 space          0
      Number of inactive orbitals                5
      Number of active orbitals                 10
      Number of secondary orbitals             104
      Spin quantum number                      0.0
      State symmetry                             1
--

++    Orbital specifications:
      -----------------------

      Symmetry species                           1
                                                 a
      Frozen orbitals                            0
      Inactive orbitals                          5
      Active orbitals                           10
      RAS1 orbitals                              0
      RAS2 orbitals                             10
      RAS3 orbitals                              0
      Secondary orbitals                       104
      Deleted orbitals                           0
      Number of basis functions                119
--

++    CI expansion specifications:
      ----------------------------

      Number of CSFs                           825
      Number of determinants                  1035
      Number of root(s) required                10
      Root chosen for geometry opt.             10
      CI roots used                              1     2     3     4     5     6     7     8     9    10
      weights                                0.100 0.100 0.100 0.100 0.100 0.100 0.100 0.100 0.100 0.100
      highest root included in the CI           10
      max. size of the explicit Hamiltonian    200
--

++    Optimization specifications:
      ----------------------------

      RASSCF algorithm: Conventional
      Maximum number of macro iterations       200
      Maximum number of SX iterations          100
      Threshold for RASSCF energy            0.100E-07
      Threshold for max MO rotation          0.100E+00
      Threshold for max BLB element          0.100E-03
      Level shift parameter                  0.500E+00
      Make Quasi-Newton update
--

      The MO-coefficients are taken from the file:
      INPORB                                                                                                                          
      Title: RASSCF average (pseudo-natural) orbitals                                      

      Total molecular charge    0.00

      Molecular orbitals exchanged:
        In symmetry  1 :  10  18
        In symmetry  1 :  11  19
        In symmetry  1 :  12  28
        In symmetry  1 :  13  29
        In symmetry  1 :  14  36
        In symmetry  1 :  15  37


      ************************************************************************************************************************
      *                                                                                                                      *
      *                                            Wave function control section                                             *
      *                                                                                                                      *
      ************************************************************************************************************************


                                         RASSCF iterations: Energy and convergence statistics
                                         ----------------------------------------------------

      Iter CI   SX   CI       RASSCF       Energy    max ROT     max BLB   max BLB  Level Ln srch  Step   QN   Walltime
          iter iter root      energy       change     param      element    value   shift minimum  type update hh:mm:ss
 Nr of preliminary CI iterations:   3
        1   1   33    0  -108.58589137    0.00E+00  -0.19E+00*   5  59 1 -0.44E-01*  0.49   0.00    SX    NO    0:00:06
        2   4   30    0  -108.59853347   -0.13E-01* -0.25E+00*   4  58 1 -0.13E-01*  0.50   0.00    SX    NO    0:00:03
        3   3   20    0  -108.60181490   -0.33E-02*  0.18E+00*   5  14 1 -0.60E-02*  0.50   0.00    SX    NO    0:00:03
        4   4   17    0  -108.60361096   -0.18E-02*  0.72E-01    5  14 1 -0.26E-02*  0.50   0.00    SX    NO    0:00:02
        5   4   17    0  -108.60462247   -0.10E-02*  0.17E+00*  13  38 1  0.19E-02*  0.50   2.50    QN   YES    0:00:03
        6   5   16    0  -108.60590820   -0.13E-02*  0.22E+00*  13  60 1  0.12E-02*  0.50   2.50    QN   YES    0:00:03
        7   9   16    0  -108.60867818   -0.28E-02*  0.19E+00*   3  14 1  0.61E-02*  0.45   1.07    QN   YES    0:00:03
        8   5   17    0  -108.60951982   -0.84E-03*  0.11E+00*   5  59 1 -0.76E-02*  0.45   1.45    QN   YES    0:00:03
        9   5   18    0  -108.61002819   -0.51E-03* -0.43E-01    5  14 1  0.46E-02*  0.45   1.52    QN   YES    0:00:03
       10   5   17    0  -108.61046742   -0.44E-03* -0.42E-01    5  14 1  0.33E-02*  0.45   2.27    LS   YES    0:00:03
       11   5   18    0  -108.61068608   -0.22E-03* -0.36E-01    4  58 1  0.38E-02*  0.45   1.49    QN   YES    0:00:03
       12   4   17    0  -108.61091043   -0.22E-03* -0.36E-01    4  58 1  0.33E-02*  0.45   2.25    LS   YES    0:00:02
       13   4   16    0  -108.61100538   -0.95E-04* -0.28E-01    4  58 1  0.28E-02*  0.45   1.25    QN   YES    0:00:02
       14   4   16    0  -108.61109795   -0.93E-04* -0.36E-01    5  59 1  0.15E-02*  0.45   2.50    LS   YES    0:00:03
       15   4   15    0  -108.61116234   -0.64E-04* -0.27E-01    5  14 1 -0.87E-03*  0.45   1.50    QN   YES    0:00:02
       16   5   15    0  -108.61123490   -0.73E-04* -0.10E+00*   4  58 1 -0.92E-03*  0.45   2.50    QN   YES    0:00:03
       17   5   14    0  -108.61138874   -0.15E-03* -0.27E+00*   4  58 1 -0.13E-02*  0.45   2.50    QN   YES    0:00:03
       18   6   18    0  -108.61169991   -0.31E-03* -0.14E+00*   7  56 1  0.36E-02*  0.45   1.18    QN   YES    0:00:02
       19   5   17    0  -108.61147258    0.23E-03* -0.30E+00*   7  56 1  0.26E-02*  0.45  -0.50    QN   YES    0:00:02
       20   5   18    0  -108.61187015   -0.40E-03*  0.90E-01    7  56 1  0.48E-02*  0.45   1.07    QN   YES    0:00:03
       21   4   19    0  -108.61197481   -0.10E-03* -0.54E-01    6  89 1 -0.44E-02*  0.45   1.15    QN   YES    0:00:03
       22   5   18    0  -108.61206189   -0.87E-04* -0.35E-01    6  89 1 -0.53E-02*  0.45   1.08    QN   YES    0:00:03
       23   5   18    0  -108.61209313   -0.31E-04*  0.26E-01    6  89 1 -0.58E-02*  0.45   0.87    QN   YES    0:00:03
       24   5   17    0  -108.61210162   -0.85E-05*  0.34E-01    6  89 1 -0.62E-02*  0.45   0.67    QN   YES    0:00:02
       25   6   17    0  -108.61209368    0.79E-05* -0.12E+00*   6  89 1 -0.65E-02*  0.45   0.26    SX   YES    0:00:03
       26   6   16    0  -108.61281063   -0.72E-03* -0.11E+00*   6  89 1 -0.50E-02*  0.45   2.50    LS   YES    0:00:03
       27   4   16    0  -108.61357923   -0.77E-03* -0.11E+00*   6  89 1 -0.37E-02*  0.45   2.50    LS   YES    0:00:03
       28   4   16    0  -108.61433394   -0.75E-03* -0.27E+00*   7  89 1 -0.26E-02*  0.45   2.50    QN   YES    0:00:03
       29   5   17    0  -108.61551287   -0.12E-02* -0.32E-01    7  88 1 -0.20E-02*  0.45   1.04    QN   YES    0:00:03
       30   4   16    0  -108.61560685   -0.94E-04* -0.45E-01    7  88 1 -0.15E-02*  0.45   1.97    QN   YES    0:00:03
       31   6   15    0  -108.61567917   -0.72E-04*  0.12E-01    7  56 1 -0.87E-03*  0.45   1.22    QN   YES    0:00:03
       32   4   15    0  -108.61566914    0.10E-04* -0.14E-01    7  56 1 -0.82E-03*  0.45  -0.10    SX   YES    0:00:02
       33   4   15    0  -108.61569410   -0.25E-04* -0.18E-01    7  56 1 -0.43E-03*  0.45   2.42    LS   YES    0:00:03
       34   4   15    0  -108.61570755   -0.13E-04*  0.14E-01    7  90 1 -0.21E-03*  0.45   1.10    QN   YES    0:00:03
       35   6   14    0  -108.61571121   -0.37E-05* -0.67E-02    5  59 1  0.21E-03*  0.45   1.34    QN   YES    0:00:02
       36   6   14    0  -108.61571347   -0.23E-05* -0.60E-02    4  58 1  0.18E-03*  0.45   1.50    QN   YES    0:00:02
       37   6   14    0  -108.61571531   -0.18E-05* -0.14E-01    4  58 1  0.12E-03*  0.45   2.32    QN   YES    0:00:02
       38   7   16    0  -108.61572020   -0.49E-05*  0.90E-01    7  88 1  0.23E-03*  0.45   2.50    QN   YES    0:00:03
       39   8   18    0  -108.61577353   -0.53E-04*  0.82E-01    7  88 1  0.12E-02*  0.45   2.50    LS   YES    0:00:02
       40   6   22    0  -108.61585953   -0.86E-04*  0.77E-01    7  88 1  0.23E-02*  0.45   2.50    LS   YES    0:00:03
       41   7   24    0  -108.61597008   -0.11E-03*  0.15E+00*   7  88 1  0.36E-02*  0.45   2.50    QN   YES    0:00:03
       42   7   21    0  -108.61579073    0.18E-03* -0.36E-01    7  89 1  0.83E-02*  0.45   0.21    SX   YES    0:00:03
       43   6   23    0  -108.61716534   -0.14E-02*  0.12E+00*   7  89 1  0.46E-02*  0.45   2.50    QN   YES    0:00:02
       44   6   34    0  -108.62230857   -0.51E-02*  0.16E+00*  12  88 1 -0.56E-02*  0.44   2.13    QN   YES    0:00:02
       45   5   27    0  -108.62571524   -0.34E-02*  0.62E-01    7  89 1 -0.12E-01*  0.44   1.15    QN   YES    0:00:02
       46   4   22    0  -108.62632156   -0.61E-03*  0.12E+00*   7  89 1 -0.12E-01*  0.44   1.37    QN   YES    0:00:03
       47   5   40    0  -108.62701965   -0.70E-03*  0.16E+00*   7  89 1 -0.10E-01*  0.44   2.16    QN   YES    0:00:03
       48   5   34    0  -108.62805203   -0.10E-02*  0.19E+00*   7  89 1 -0.72E-02*  0.44   2.19    QN   YES    0:00:03
       49   5   27    0  -108.62900310   -0.95E-03*  0.55E-01    7  33 1  0.53E-02*  0.44   2.50    SX   YES    0:00:03
       50   4   27    0  -108.63107949   -0.21E-02*  0.57E-01   12  88 1 -0.32E-02*  0.43   2.50    LS   YES    0:00:03
       51   4   27    0  -108.63257008   -0.15E-02*  0.60E-01   12  56 1 -0.24E-02*  0.43   2.17    QN   YES    0:00:03
       52   5   30    0  -108.63393747   -0.14E-02* -0.11E+00*  12  56 1 -0.29E-02*  0.43   1.62    QN   YES    0:00:03
       53   5   28    0  -108.63460604   -0.67E-03*  0.58E-01    5  59 1 -0.26E-02*  0.43   1.42    QN   YES    0:00:03
       54   5   27    0  -108.63508961   -0.48E-03*  0.47E-01    7  89 1  0.25E-02*  0.43   1.08    QN   YES    0:00:03
       55   4   31    0  -108.63547737   -0.39E-03* -0.37E-01   12 107 1  0.54E-02*  0.43   1.02    QN   YES    0:00:02
       56   5   27    0  -108.63568016   -0.20E-03*  0.54E-01   12 107 1  0.63E-02*  0.43   0.87    QN   YES    0:00:03
       57   5   27    0  -108.63562662    0.54E-04*  0.16E-01   12 107 1  0.65E-02*  0.43   0.31    SX   YES    0:00:03
       58   5   27    0  -108.63639799   -0.77E-03* -0.73E-01   12 107 1  0.27E-02*  0.43   2.50    QN   YES    0:00:03
       59   5   25    0  -108.63757247   -0.12E-02* -0.12E+00*  11  17 1  0.13E-02*  0.43   2.50    QN   YES    0:00:03
       60   5   25    0  -108.63884121   -0.13E-02* -0.11E+00*  12 107 1 -0.34E-02*  0.43   2.26    QN   YES    0:00:03
       61   6   25    0  -108.64000264   -0.12E-02*  0.80E-01   12 107 1 -0.56E-02*  0.43   1.93    QN   YES    0:00:03
       62   5   44    0  -108.64110462   -0.11E-02* -0.84E-01   12 107 1 -0.72E-02*  0.43   2.06    QN   YES    0:00:03
       63   5   38    0  -108.64242252   -0.13E-02* -0.10E+00*  12 107 1 -0.83E-02*  0.42   2.39    QN   YES    0:00:02
       64   5   24    0  -108.64417043   -0.17E-02* -0.11E+00*  12 107 1 -0.83E-02*  0.42   2.26    QN   YES    0:00:02
       65   5   32    0  -108.64619698   -0.20E-02* -0.10E+00*  12 107 1 -0.75E-02*  0.41   2.18    QN   YES    0:00:02
       66   4   29    0  -108.64838638   -0.22E-02* -0.77E-01   15 107 1  0.52E-02*  0.40   2.06    QN   YES    0:00:03
       67   5   36    0  -108.65063674   -0.23E-02* -0.63E-01    7  33 1  0.32E-02*  0.40   2.22    QN   YES    0:00:03
       68   5   41    0  -108.65262853   -0.20E-02* -0.54E-01   10  16 1  0.22E-02*  0.39   2.50    LS   YES    0:00:02
       69   5   26    0  -108.65357357   -0.95E-03* -0.57E-01    6  34 1  0.29E-02*  0.39   1.86    QN   YES    0:00:03
       70   6   26    0  -108.65470450   -0.11E-02*  0.59E-01    6  34 1  0.32E-02*  0.40   2.50    QN   YES    0:00:03
       71   5   26    0  -108.65601241   -0.13E-02*  0.66E-01    7  89 1  0.32E-02*  0.40   2.17    QN   YES    0:00:03
       72   5   31    0  -108.65714802   -0.11E-02*  0.57E-01    7  89 1  0.26E-02*  0.40   1.81    QN   YES    0:00:02
       73   4   29    0  -108.65794939   -0.80E-03*  0.61E-01    7  89 1  0.15E-02*  0.40   1.73    QN   YES    0:00:03
       74   4   28    0  -108.65849258   -0.54E-03*  0.32E-01   15  88 1  0.12E-02*  0.40   1.64    QN   YES    0:00:03
       75   4   29    0  -108.65886127   -0.37E-03*  0.43E-01   15 107 1  0.18E-02*  0.40   1.38    QN   YES    0:00:02
       76   4   28    0  -108.65904461   -0.18E-03*  0.19E-01   15 107 1  0.15E-02*  0.40   1.55    QN   YES    0:00:03
       77   4   27    0  -108.65915692   -0.11E-03*  0.14E-01   15 107 1  0.82E-03*  0.40   1.48    QN   YES    0:00:02
       78   4   26    0  -108.65921329   -0.56E-04* -0.77E-02    7  89 1  0.52E-03*  0.40   1.30    QN   YES    0:00:03
       79   4   25    0  -108.65924284   -0.30E-04*  0.64E-02    7  89 1  0.58E-03*  0.40   1.51    QN   YES    0:00:03
       80   4   24    0  -108.65926236   -0.20E-04* -0.74E-02    7  89 1  0.35E-03*  0.40   1.72    QN   YES    0:00:03
       81   5   23    0  -108.65927560   -0.13E-04* -0.55E-02   12  23 1  0.12E-03*  0.40   1.52    QN   YES    0:00:02
       82   4   22    0  -108.65928346   -0.79E-05*  0.45E-02   15 107 1  0.18E-03*  0.40   1.53    QN   YES    0:00:03
       83   5   22    0  -108.65928977   -0.63E-05* -0.61E-02   15 107 1  0.22E-03*  0.40   1.67    QN   YES    0:00:03
       84   5   21    0  -108.65929546   -0.57E-05*  0.67E-02   15 107 1  0.17E-03*  0.40   1.84    QN   YES    0:00:02
       85   5   21    0  -108.65930087   -0.54E-05* -0.73E-02   11  36 1 -0.10E-03*  0.40   1.81    QN   YES    0:00:03
       86   6   22    0  -108.65930620   -0.53E-05* -0.93E-02    7  89 1  0.20E-03*  0.40   1.91    QN   YES    0:00:03
       87   6   23    0  -108.65931269   -0.65E-05* -0.13E-01   15 107 1 -0.33E-03*  0.40   1.98    QN   YES    0:00:03
       88   6   24    0  -108.65932132   -0.86E-05* -0.20E-01   15 107 1 -0.42E-03*  0.41   2.07    QN   YES    0:00:03
       89   6   24    0  -108.65933334   -0.12E-04* -0.29E-01   15 107 1 -0.45E-03*  0.41   2.15    QN   YES    0:00:02
       90   6   25    0  -108.65935010   -0.17E-04* -0.40E-01   14 107 1 -0.39E-03*  0.41   2.03    QN   YES    0:00:03
       91   6   26    0  -108.65937401   -0.24E-04*  0.51E-01    7  89 1 -0.40E-03*  0.41   1.87    QN   YES    0:00:03
       92   6   26    0  -108.65940876   -0.35E-04*  0.62E-01    7  89 1 -0.63E-03*  0.41   1.88    QN   YES    0:00:03
       93   6   26    0  -108.65946191   -0.53E-04*  0.73E-01    7  89 1 -0.85E-03*  0.41   2.03    QN   YES    0:00:03
       94   7   26    0  -108.65953715   -0.75E-04*  0.81E-01    7  89 1 -0.93E-03*  0.40   2.05    QN   YES    0:00:03
       95   7   26    0  -108.65963981   -0.10E-03*  0.10E+00*   7  89 1 -0.92E-03*  0.40   1.88    QN   YES    0:00:03
       96   8   27    0  -108.65970665   -0.67E-04*  0.72E-01   11  56 1 -0.12E-02*  0.40   0.94    QN   YES    0:00:03
       97   7   27    0  -108.65984433   -0.14E-03* -0.12E-01   11 107 1 -0.11E-02*  0.39   1.13    QN   YES    0:00:02
       98   4   27    0  -108.65996216   -0.12E-03* -0.61E-01   11 107 1 -0.66E-03*  0.39   2.34    QN   YES    0:00:03
       99   6   26    0  -108.66008595   -0.12E-03*  0.22E-01   15  87 1  0.60E-03*  0.39   1.63    QN   YES    0:00:02
      100   7   26    0  -108.66015852   -0.73E-04*  0.37E-01   11 100 1 -0.67E-03*  0.39   1.41    QN   YES    0:00:03
      101   7   26    0  -108.66019971   -0.41E-04*  0.23E-01   15 107 1  0.97E-03*  0.39   1.67    QN   YES    0:00:03
      102   6   26    0  -108.66023434   -0.35E-04*  0.96E-02   15 107 1  0.13E-02*  0.39   1.59    QN   YES    0:00:03
      103   5   26    0  -108.66025021   -0.16E-04* -0.84E-02   15 107 1  0.15E-02*  0.39   1.37    QN   YES    0:00:03
      104   6   26    0  -108.66025319   -0.30E-05* -0.50E-02   14 107 1  0.16E-02*  0.38   0.94    QN   YES    0:00:03
      105   6   26    0  -108.66025151    0.17E-05*  0.47E-02   14 107 1  0.17E-02*  0.38  -0.50    SX   YES    0:00:03
      106   6   26    0  -108.66029607   -0.45E-04*  0.34E-01   14 107 1  0.66E-03*  0.38   2.08    QN   YES    0:00:03
      107   6   24    0  -108.66034198   -0.46E-04*  0.27E-01   15 107 1 -0.28E-03*  0.38   1.56    QN   YES    0:00:02
      108   6   23    0  -108.66036531   -0.23E-04*  0.27E-01   15 107 1 -0.53E-03*  0.38   1.70    QN   YES    0:00:02
      109   6   24    0  -108.66038293   -0.18E-04* -0.24E-01   15 107 1 -0.39E-03*  0.38   1.78    QN   YES    0:00:03
      110   6   24    0  -108.66039779   -0.15E-04*  0.14E-01    7  56 1 -0.25E-03*  0.38   1.57    QN   YES    0:00:03
      111   6   23    0  -108.66040822   -0.10E-04*  0.96E-02   15 107 1  0.24E-03*  0.38   1.21    QN   YES    0:00:03
      112   6   23    0  -108.66041648   -0.83E-05*  0.82E-02   15 107 1  0.32E-03*  0.38   1.37    QN   YES    0:00:02
      113   6   22    0  -108.66042358   -0.71E-05*  0.93E-02   15 107 1  0.25E-03*  0.38   1.93    QN   YES    0:00:02
      114   6   22    0  -108.66043090   -0.73E-05*  0.99E-02    7  89 1  0.24E-03*  0.38   1.47    QN   YES    0:00:02
      115   6   22    0  -108.66043586   -0.50E-05*  0.13E-01    7  89 1  0.18E-03*  0.38   1.77    QN   YES    0:00:03
      116   6   22    0  -108.66044078   -0.49E-05*  0.93E-02   15 107 1 -0.17E-03*  0.38   1.67    QN   YES    0:00:02
      117   6   21    0  -108.66044407   -0.33E-05*  0.48E-02   15 107 1 -0.91E-04   0.38   1.57    QN   YES    0:00:02
      118   6   21    0  -108.66044593   -0.19E-05* -0.23E-02    7  56 1 -0.41E-04   0.38   1.56    QN   YES    0:00:03
      119   6   20    0  -108.66044717   -0.12E-05* -0.22E-02   15 107 1  0.69E-04   0.38   1.60    QN   YES    0:00:03
      120   6   20    0  -108.66044807   -0.90E-06*  0.17E-02   15 107 1  0.76E-04   0.38   1.58    QN   YES    0:00:02
      121   6   20    0  -108.66044864   -0.57E-06*  0.15E-02    5   9 1  0.32E-04   0.38   1.58    QN   YES    0:00:03
      122   5   19    0  -108.66044899   -0.35E-06*  0.14E-02   15  57 1 -0.25E-04   0.38   1.72    QN   YES    0:00:03
      123   5   19    0  -108.66044927   -0.28E-06*  0.17E-02   15 107 1 -0.44E-04   0.38   1.83    QN   YES    0:00:02
      124   6   19    0  -108.66044954   -0.27E-06*  0.18E-02   15 107 1 -0.46E-04   0.38   1.80    QN   YES    0:00:03
      125   6   19    0  -108.66044978   -0.24E-06* -0.20E-02    5   9 1 -0.25E-04   0.38   1.75    QN   YES    0:00:03
      126   6   18    0  -108.66044998   -0.20E-06*  0.20E-02    5   9 1 -0.22E-04   0.38   1.73    QN   YES    0:00:02
      127   6   18    0  -108.66045015   -0.17E-06*  0.20E-02    7  89 1 -0.26E-04   0.38   1.73    QN   YES    0:00:03
      128   6   18    0  -108.66045030   -0.15E-06*  0.18E-02   15 107 1  0.24E-04   0.38   1.72    QN   YES    0:00:03
      129   6   18    0  -108.66045044   -0.13E-06* -0.15E-02   15  88 1 -0.17E-04   0.38   1.71    QN   YES    0:00:02
      130   5   17    0  -108.66045054   -0.11E-06*  0.11E-02    5   9 1  0.16E-04   0.38   1.69    QN   YES    0:00:03
      131   5   17    0  -108.66045062   -0.77E-07*  0.76E-03   15 107 1 -0.15E-04   0.38   1.65    QN   YES    0:00:03
      132   5   16    0  -108.66045067   -0.49E-07*  0.45E-03   15 107 1 -0.13E-04   0.38   1.60    QN   YES    0:00:03
      133   4   15    0  -108.66045070   -0.29E-07* -0.31E-03    4   9 1  0.72E-05   0.38   1.59    QN   YES    0:00:03
      134   5   15    0  -108.66045071   -0.17E-07*  0.20E-03    4  58 1 -0.50E-05   0.38   1.62    QN   YES    0:00:02
      135   3   14    0  -108.66045072   -0.12E-07* -0.20E-03   15 107 1  0.65E-05   0.38   1.65    QN   YES    0:00:02
      136   5   14    0  -108.66045073   -0.85E-08  -0.18E-03   15 107 1  0.48E-05   0.38   1.67    QN   YES    0:00:02
      Convergence after136 iterations
      137   3   14    0  -108.66045074   -0.66E-08  -0.18E-03    5   8 1  0.29E-05   0.38   1.67    QN   YES    0:00:03

      ************************************************************************************************************************
                                                      Wave function printout:
                       occupation of active orbitals, and spin coupling of open shells (u,d: Spin up or down)
      ************************************************************************************************************************

      Note: transformation to natural orbitals
      has been made, which may change the order of the CSFs.

      printout of CI-coefficients larger than  0.05 for root  1
      energy=    -109.067143
      conf/sym  1111111111     Coeff  Weight
             1  2200000000   0.96300 0.92737
             4  2020000000  -0.12246 0.01500
            10  udud000000   0.10921 0.01193
            12  uudd000000   0.09193 0.00845
            17  0202000000  -0.12942 0.01675
            54  2u000000d0   0.05833 0.00340

      printout of CI-coefficients larger than  0.05 for root  2
      energy=    -108.700417
      conf/sym  1111111111     Coeff  Weight
             3  u2d0000000  -0.82852 0.68645
             7  2u0d000000  -0.51974 0.27013
            14  0u2d000000  -0.08366 0.00700
            18  u0d2000000  -0.06350 0.00403
            22  u200d00000  -0.08674 0.00752
            51  2u000d0000   0.06770 0.00458
            60  u20000000d  -0.05234 0.00274

      printout of CI-coefficients larger than  0.05 for root  3
      energy=    -108.675090
      conf/sym  1111111111     Coeff  Weight
             2  2ud0000000   0.71261 0.50782
             8  u20d000000   0.66937 0.44806
            13  u02d000000   0.06105 0.00373
            21  2u00d00000   0.06565 0.00431
            55  2u0000000d   0.05912 0.00350
            56  u2000d0000  -0.09894 0.00979
            64  20u00000d0   0.06283 0.00395

      printout of CI-coefficients larger than  0.05 for root  4
      energy=    -108.673309
      conf/sym  1111111111     Coeff  Weight
             3  u2d0000000   0.52071 0.27114
             7  2u0d000000  -0.82731 0.68445
            18  u0d2000000  -0.07128 0.00508
            22  u200d00000   0.05450 0.00297
            51  2u000d0000   0.11149 0.01243
            53  2u00000d00   0.05776 0.00334

      printout of CI-coefficients larger than  0.05 for root  5
      energy=    -108.603085
      conf/sym  1111111111     Coeff  Weight
            57  u20000d000  -0.97562 0.95183
            82  u02000d000   0.13949 0.01946
           112  0udu00d000  -0.12677 0.01607
           493  u0u000d00d   0.05098 0.00260

      printout of CI-coefficients larger than  0.05 for root  6
      energy=    -108.600648
      conf/sym  1111111111     Coeff  Weight
            52  2u0000d000  -0.97638 0.95333
           127  u0ud00d000   0.12418 0.01542
           142  0u0200d000  -0.13889 0.01929

      printout of CI-coefficients larger than  0.05 for root  7
      energy=    -108.575274
      conf/sym  1111111111     Coeff  Weight
             3  u2d0000000  -0.09638 0.00929
            22  u200d00000   0.91704 0.84096
            27  u020d00000  -0.13297 0.01768
            33  0udud00000   0.11898 0.01416
            51  2u000d0000   0.31203 0.09736

      printout of CI-coefficients larger than  0.05 for root  8
      energy=    -108.574582
      conf/sym  1111111111     Coeff  Weight
             2  2ud0000000   0.07927 0.00628
             8  u20d000000   0.08504 0.00723
            21  2u00d00000  -0.62784 0.39419
            36  u0udd00000   0.07965 0.00634
            39  0u02d00000  -0.09138 0.00835
            56  u2000d0000   0.73619 0.54198
            81  u0200d0000  -0.10783 0.01163
           111  0udu0d0000   0.09505 0.00903

      printout of CI-coefficients larger than  0.05 for root  9
      energy=    -108.571293
      conf/sym  1111111111     Coeff  Weight
             7  2u0d000000   0.12162 0.01479
            22  u200d00000  -0.31321 0.09810
            51  2u000d0000   0.91509 0.83738
           126  u0ud0d0000  -0.11781 0.01388
           141  0u020d0000   0.13241 0.01753

      printout of CI-coefficients larger than  0.05 for root 10
      energy=    -108.563666
      conf/sym  1111111111     Coeff  Weight
             1  2200000000  -0.05184 0.00269
             8  u20d000000   0.06059 0.00367
            21  2u00d00000   0.73953 0.54690
            36  u0udd00000  -0.09239 0.00854
            39  0u02d00000   0.10383 0.01078
            56  u2000d0000   0.62503 0.39067
            81  u0200d0000  -0.08831 0.00780
           111  0udu0d0000   0.07868 0.00619

      Natural orbitals and occupation numbers for root  1
      sym 1:   1.932799   1.934721   0.062112   0.065435   0.000008   0.000078   0.000007   0.001639   0.002930   0.000272


      Natural orbitals and occupation numbers for root  2
      sym 1:   1.265610   1.693506   0.726178   0.296870   0.000048   0.000575   0.000005   0.003673   0.007055   0.006480


      Natural orbitals and occupation numbers for root  3
      sym 1:   1.515857   1.452923   0.534411   0.477260   0.000051   0.000921   0.000003   0.005834   0.006261   0.006478


      Natural orbitals and occupation numbers for root  4
      sym 1:   1.701621   1.268549   0.289843   0.722856   0.000046   0.001158   0.000003   0.007391   0.004660   0.003873


      Natural orbitals and occupation numbers for root  5
      sym 1:   0.979109   1.929422   0.068146   0.021331   0.000041   0.000007   1.000000   0.000251   0.001594   0.000098


      Natural orbitals and occupation numbers for root  6
      sym 1:   1.932479   0.978818   0.021570   0.066148   0.000001   0.000052   1.000000   0.000598   0.000318   0.000016


      Natural orbitals and occupation numbers for root  7
      sym 1:   1.077681   1.828667   0.066672   0.027126   0.893795   0.104002   0.000078   0.000269   0.001303   0.000407


      Natural orbitals and occupation numbers for root  8
      sym 1:   1.379550   1.527718   0.050578   0.042991   0.420410   0.577028   0.000099   0.000445   0.000938   0.000243


      Natural orbitals and occupation numbers for root  9
      sym 1:   1.831780   1.077201   0.027321   0.064513   0.104158   0.893868   0.000021   0.000659   0.000406   0.000073


      Natural orbitals and occupation numbers for root 10
      sym 1:   1.539461   1.389451   0.044423   0.051759   0.564963   0.407992   0.000074   0.000625   0.000988   0.000265


      ************************************************************************************************************************
      *                                                                                                                      *
      *                                                    Final results                                                     *
      *                                                                                                                      *
      ************************************************************************************************************************


++    Wave function specifications:
      -----------------------------

      Number of closed shell electrons          10
      Number of electrons in active shells       4
      Max number of holes in RAS1 space          0
      Max nr of electrons in RAS3 space          0
      Number of inactive orbitals                5
      Number of active orbitals                 10
      Number of secondary orbitals             104
      Spin quantum number                      0.0
      State symmetry                             1
--

++    Orbital specifications:
      -----------------------

      Symmetry species                           1
                                                 a
      Frozen orbitals                            0
      Inactive orbitals                          5
      Active orbitals                           10
      RAS1 orbitals                              0
      RAS2 orbitals                             10
      RAS3 orbitals                              0
      Secondary orbitals                       104
      Deleted orbitals                           0
      Number of basis functions                119
--

++    CI expansion specifications:
      ----------------------------

      Number of CSFs                           825
      Number of determinants                  1035
      Number of root(s) required                10
      CI roots used                              1     2     3     4     5     6     7     8     9    10
      weights                                0.100 0.100 0.100 0.100 0.100 0.100 0.100 0.100 0.100 0.100
      highest root included in the CI           10
      Root passed to geometry opt.              10
--

++    Final optimization conditions:
      ------------------------------

      Average CI energy                            -108.66045074
      RASSCF energy for state 10                   -108.56366607
      Super-CI energy                                -0.00000000
      RASSCF energy change                            0.00000000
      Max change in MO coefficients               0.486E-02
      Max non-diagonal density matrix element    -0.177E-03
      Maximum BLB matrix element                  0.292E-05
      (orbital pair   5,   8 in symmetry   1)
      Norm of electronic gradient            0.975E-01
--


      Final state energy(ies):
      ------------------------

::    RASSCF root number  1 Total energy:   -109.06714345
::    RASSCF root number  2 Total energy:   -108.70041738
::    RASSCF root number  3 Total energy:   -108.67509029
::    RASSCF root number  4 Total energy:   -108.67330868
::    RASSCF root number  5 Total energy:   -108.60308524
::    RASSCF root number  6 Total energy:   -108.60064764
::    RASSCF root number  7 Total energy:   -108.57527371
::    RASSCF root number  8 Total energy:   -108.57458221
::    RASSCF root number  9 Total energy:   -108.57129271
::    RASSCF root number 10 Total energy:   -108.56366607

++    Molecular orbitals:
      -------------------

      Pseudonatural active orbitals and approximate occupation numbers




      Molecular orbitals for symmetry species 1: a  


      Orbital                 1         2         3         4         5         6         7         8         9        10
      Energy           -15.8583  -15.8527   -1.6493   -0.9220   -0.7771    0.0000    0.0000    0.0000    0.0000    0.0000
      Occ. No.           2.0000    2.0000    2.0000    2.0000    2.0000    1.5135    1.5044    0.1856    0.1808    0.2004

     1 N1     1s         0.3078   -0.9508   -0.0166   -0.0065   -0.0067    0.0000   -0.0000   -0.0000   -0.0000    0.0000
     2 N1     1s         0.0025    0.0013    0.6347   -0.6831   -0.2890    0.0000   -0.0000   -0.0000   -0.0000    0.0003
     3 N1     1s         0.0007   -0.0014   -0.0029   -0.0020   -0.0008    0.0000   -0.0000   -0.0000    0.0000    0.0000
     4 N1     1s        -0.0061   -0.0137   -0.1436   -0.2362   -0.1450    0.0000   -0.0000   -0.0001    0.0000    0.0001
     5 N1     1s        -0.0004   -0.0044    0.0090   -0.0341   -0.0787   -0.0000   -0.0000    0.0003    0.0002   -0.0017
     6 N1     2px        0.0000   -0.0000    0.0000    0.0000    0.0000    0.6068    0.2983   -0.3432   -0.6746   -0.0889
     7 N1     2px       -0.0000    0.0000    0.0000   -0.0000   -0.0000   -0.0117   -0.0062    0.0047    0.0119   -0.0001
     8 N1     2px        0.0000    0.0000   -0.0000    0.0000   -0.0000   -0.0700   -0.0344   -0.0653   -0.1498   -0.0058
     9 N1     2px       -0.0000   -0.0000    0.0000    0.0000   -0.0000   -0.0149   -0.0064   -0.1708   -0.3852    0.0414
    10 N1     2py        0.0000   -0.0000   -0.0000   -0.0000   -0.0000   -0.3018    0.5999   -0.6915    0.3347   -0.1792
    11 N1     2py       -0.0000    0.0000    0.0000   -0.0000   -0.0000    0.0058   -0.0125    0.0095   -0.0059   -0.0001
    12 N1     2py       -0.0000    0.0000    0.0000   -0.0000   -0.0000    0.0348   -0.0691   -0.1316    0.0745   -0.0118
    13 N1     2py       -0.0000    0.0000    0.0000   -0.0000   -0.0000    0.0073   -0.0129   -0.3425    0.1927    0.0857
    14 N1     2pz       -0.0040    0.0074   -0.3629   -0.3152   -0.7071    0.0000    0.0000   -0.0000   -0.0000    0.0001
    15 N1     2pz        0.0021   -0.0042    0.0374    0.0223    0.0483   -0.0000    0.0000    0.0000   -0.0000    0.0000
    16 N1     2pz        0.0060    0.0023    0.1347    0.1445    0.1127   -0.0000   -0.0000    0.0001    0.0000    0.0001
    17 N1     2pz        0.0065   -0.0023    0.0618    0.0102   -0.1251   -0.0000   -0.0001    0.0004    0.0001    0.0001
    18 N1     3d2-      -0.0000    0.0000   -0.0000    0.0000    0.0000   -0.0000    0.0000   -0.0000    0.0000    0.0000
    19 N1     3d2-      -0.0000    0.0000   -0.0000    0.0000    0.0000   -0.0000    0.0000   -0.0000    0.0000    0.0000
    20 N1     3d2-       0.0000   -0.0000   -0.0000    0.0000    0.0000    0.0000    0.0000    0.0000    0.0000    0.0000
    21 N1     3d1-       0.0000   -0.0000    0.0000   -0.0000   -0.0000    0.0099   -0.0199   -0.0060    0.0032    0.0031
    22 N1     3d1-       0.0000   -0.0000    0.0000   -0.0000   -0.0000    0.0181   -0.0360   -0.0097    0.0050    0.0082
    23 N1     3d1-       0.0000   -0.0000    0.0000   -0.0000   -0.0000    0.0021   -0.0046    0.0163   -0.0115   -0.0015
    24 N1     3d0        0.0003   -0.0009    0.0226    0.0047    0.0208   -0.0000   -0.0000    0.0000    0.0000   -0.0000
    25 N1     3d0       -0.0012    0.0002    0.0210    0.0067    0.0212   -0.0000    0.0000   -0.0000   -0.0000   -0.0000
    26 N1     3d0       -0.0007   -0.0008   -0.0235   -0.0157   -0.0099    0.0000   -0.0000   -0.0000    0.0000    0.0000
    27 N1     3d1+      -0.0000    0.0000   -0.0000   -0.0000   -0.0000   -0.0199   -0.0099   -0.0030   -0.0065    0.0015
    28 N1     3d1+      -0.0000   -0.0000   -0.0000   -0.0000   -0.0000   -0.0363   -0.0179   -0.0048   -0.0100    0.0041
    29 N1     3d1+      -0.0000   -0.0000    0.0000    0.0000   -0.0000   -0.0043   -0.0023    0.0081    0.0232   -0.0008
    30 N1     3d2+       0.0000   -0.0000    0.0000   -0.0000   -0.0000    0.0000   -0.0000   -0.0000   -0.0000    0.0000
    31 N1     3d2+       0.0000   -0.0000    0.0000   -0.0000   -0.0000    0.0000   -0.0000   -0.0000    0.0000   -0.0000
    32 N1     3d2+      -0.0000    0.0000    0.0000   -0.0000   -0.0000    0.0000    0.0000   -0.0000    0.0000    0.0000
    33 N1     4f3-      -0.0000    0.0000   -0.0000    0.0000    0.0000    0.0000   -0.0000    0.0000   -0.0000    0.0000
    34 N1     4f3-      -0.0000    0.0000   -0.0000    0.0000    0.0000    0.0000   -0.0000   -0.0000   -0.0000   -0.0000
    35 N1     4f2-       0.0000   -0.0000   -0.0000   -0.0000   -0.0000   -0.0000   -0.0000    0.0000    0.0000   -0.0000
    36 N1     4f2-      -0.0000   -0.0000    0.0000   -0.0000   -0.0000    0.0000    0.0000   -0.0000   -0.0000   -0.0000
    37 N1     4f1-      -0.0000    0.0000    0.0000    0.0000    0.0000   -0.0038    0.0076    0.0043   -0.0023   -0.0009
    38 N1     4f1-      -0.0000    0.0000   -0.0000   -0.0000   -0.0000   -0.0007    0.0012    0.0003   -0.0002    0.0004
    39 N1     4f0        0.0004    0.0003   -0.0086    0.0006   -0.0061    0.0000    0.0000    0.0000   -0.0000    0.0000
    40 N1     4f0        0.0004   -0.0003    0.0032   -0.0016    0.0026   -0.0000   -0.0000    0.0000    0.0000    0.0000
    41 N1     4f1+       0.0000    0.0000    0.0000   -0.0000    0.0000    0.0075    0.0038    0.0021    0.0047   -0.0004
    42 N1     4f1+       0.0000    0.0000   -0.0000   -0.0000   -0.0000    0.0013    0.0006    0.0002    0.0003    0.0002
    43 N1     4f2+      -0.0000    0.0000    0.0000    0.0000    0.0000   -0.0000    0.0000    0.0000    0.0000   -0.0000
    44 N1     4f2+       0.0000    0.0000   -0.0000    0.0000    0.0000    0.0000   -0.0000    0.0000   -0.0000   -0.0000
    45 N1     4f3+      -0.0000    0.0000   -0.0000   -0.0000   -0.0000   -0.0000   -0.0000    0.0001    0.0000    0.0000
    46 N1     4f3+      -0.0000    0.0000   -0.0000   -0.0000    0.0000   -0.0000   -0.0001   -0.0001    0.0000   -0.0000
    47 N2     1s         0.9511    0.3068   -0.0165    0.0068   -0.0066    0.0000    0.0000    0.0000   -0.0000   -0.0000
    48 N2     1s         0.0004   -0.0028    0.6369    0.6884   -0.2756    0.0000    0.0000    0.0000    0.0000   -0.0003
    49 N2     1s         0.0015    0.0002   -0.0028    0.0022   -0.0007   -0.0000    0.0000    0.0000    0.0000   -0.0000
    50 N2     1s         0.0076    0.0129   -0.1433    0.2381   -0.1401   -0.0000    0.0000    0.0001    0.0001   -0.0002
    51 N2     1s         0.0034    0.0029    0.0089    0.0352   -0.0769    0.0000   -0.0000    0.0002   -0.0002    0.0017
    52 N2     2px        0.0000    0.0000    0.0000   -0.0000    0.0000    0.5924    0.2984    0.3553    0.7507   -0.0170
    53 N2     2px       -0.0000   -0.0000    0.0000    0.0000   -0.0000   -0.0084   -0.0057   -0.0037    0.0016   -0.0011
    54 N2     2px       -0.0000   -0.0000   -0.0000   -0.0000   -0.0000   -0.0710   -0.0343    0.0626    0.1039    0.0087
    55 N2     2px        0.0000    0.0000   -0.0000   -0.0000    0.0000   -0.0126   -0.0057    0.1565    0.2885    0.0790
    56 N2     2py       -0.0000   -0.0000   -0.0000   -0.0000    0.0000   -0.2946    0.6001    0.7157   -0.3726   -0.0342
    57 N2     2py        0.0000    0.0000   -0.0000   -0.0000   -0.0000    0.0042   -0.0115   -0.0075   -0.0008   -0.0022
    58 N2     2py        0.0000   -0.0000   -0.0000   -0.0000    0.0000    0.0353   -0.0690    0.1263   -0.0515    0.0178
    59 N2     2py        0.0000   -0.0000   -0.0000    0.0000    0.0000    0.0064   -0.0114    0.3140   -0.1444    0.1570
    60 N2     2pz        0.0083    0.0011    0.3635   -0.3293    0.7032   -0.0000   -0.0000   -0.0000    0.0000    0.0001
    61 N2     2pz       -0.0047   -0.0008   -0.0375    0.0233   -0.0479    0.0000   -0.0000    0.0000    0.0000    0.0000
    62 N2     2pz       -0.0016    0.0062   -0.1345    0.1472   -0.1106    0.0000    0.0000    0.0000   -0.0000    0.0001
    63 N2     2pz       -0.0056    0.0039   -0.0617    0.0073    0.1253    0.0000    0.0001   -0.0004   -0.0002    0.0004
    64 N2     3d2-       0.0000    0.0000   -0.0000    0.0000   -0.0000   -0.0000    0.0000    0.0000   -0.0000    0.0000
    65 N2     3d2-       0.0000    0.0000   -0.0000    0.0000   -0.0000   -0.0000    0.0000    0.0000   -0.0000   -0.0000
    66 N2     3d2-       0.0000   -0.0000    0.0001    0.0001   -0.0001   -0.0000   -0.0000   -0.0000   -0.0000    0.0000
    67 N2     3d1-       0.0000    0.0000   -0.0000    0.0000   -0.0000   -0.0098    0.0198   -0.0053    0.0023   -0.0043
    68 N2     3d1-       0.0000   -0.0000    0.0000    0.0000   -0.0000   -0.0178    0.0359   -0.0075    0.0029   -0.0101
    69 N2     3d1-       0.0000   -0.0000   -0.0000    0.0000   -0.0000   -0.0019    0.0046    0.0158   -0.0062    0.0049
    70 N2     3d0        0.0009    0.0003    0.0225   -0.0051    0.0207   -0.0000   -0.0000   -0.0000    0.0000    0.0000
    71 N2     3d0       -0.0009    0.0009    0.0210   -0.0070    0.0209   -0.0000    0.0000   -0.0000   -0.0000    0.0000
    72 N2     3d0        0.0002    0.0010   -0.0234    0.0162   -0.0098    0.0000    0.0000    0.0000   -0.0000    0.0000
    73 N2     3d1+       0.0000    0.0000    0.0000    0.0000    0.0000    0.0198    0.0098   -0.0026   -0.0047   -0.0021
    74 N2     3d1+      -0.0000   -0.0000    0.0000    0.0000    0.0000    0.0357    0.0179   -0.0037   -0.0059   -0.0050
    75 N2     3d1+      -0.0000   -0.0000   -0.0000    0.0000   -0.0000    0.0039    0.0023    0.0078    0.0126    0.0024
    76 N2     3d2+      -0.0000   -0.0000    0.0000   -0.0000    0.0000    0.0000    0.0000   -0.0000    0.0000    0.0000
    77 N2     3d2+      -0.0000   -0.0000    0.0000   -0.0000    0.0000   -0.0000    0.0000    0.0000    0.0000   -0.0000
    78 N2     3d2+      -0.0000    0.0000   -0.0000   -0.0001    0.0001    0.0000    0.0000   -0.0000   -0.0000    0.0000
    79 N2     4f3-      -0.0000   -0.0000   -0.0000    0.0000    0.0000    0.0000   -0.0000   -0.0000    0.0002    0.0000
    80 N2     4f3-      -0.0000    0.0000   -0.0000   -0.0000    0.0000   -0.0000   -0.0000    0.0001   -0.0005   -0.0000
    81 N2     4f2-       0.0000    0.0000   -0.0000    0.0000   -0.0000   -0.0000   -0.0000    0.0000   -0.0000   -0.0000
    82 N2     4f2-      -0.0000   -0.0000   -0.0000    0.0000   -0.0000    0.0000    0.0000   -0.0000   -0.0000    0.0000
    83 N2     4f1-       0.0000   -0.0000   -0.0000    0.0000   -0.0000   -0.0037    0.0075   -0.0041    0.0020   -0.0017
    84 N2     4f1-       0.0000   -0.0000    0.0000   -0.0000    0.0000   -0.0005    0.0012   -0.0004    0.0006    0.0002
    85 N2     4f0        0.0000    0.0005    0.0086    0.0005    0.0061   -0.0000    0.0000   -0.0000    0.0000    0.0000
    86 N2     4f0       -0.0005    0.0002   -0.0033   -0.0015   -0.0026    0.0000    0.0000   -0.0000   -0.0000    0.0000
    87 N2     4f1+      -0.0000   -0.0000    0.0000    0.0000    0.0000    0.0075    0.0037   -0.0020   -0.0040   -0.0008
    88 N2     4f1+      -0.0000   -0.0000    0.0000   -0.0000   -0.0000    0.0010    0.0006   -0.0002   -0.0011    0.0001
    89 N2     4f2+      -0.0000   -0.0000    0.0000   -0.0000    0.0000   -0.0000   -0.0000    0.0000    0.0000    0.0000
    90 N2     4f2+       0.0000    0.0000    0.0000   -0.0000    0.0000    0.0000   -0.0000    0.0000   -0.0000    0.0000
    91 N2     4f3+      -0.0000   -0.0000   -0.0000   -0.0000   -0.0000   -0.0000   -0.0000   -0.0000   -0.0000    0.0000
    92 N2     4f3+      -0.0000    0.0000   -0.0000    0.0000    0.0000    0.0000   -0.0000    0.0003    0.0001   -0.0000
    93 X1     1s        -0.0029    0.0015   -0.0225   -0.0010    0.1103    0.0000    0.0000   -0.0004   -0.0000   -0.0001
    94 X1     1s        -0.0002    0.0001   -0.0038    0.0002   -0.0216    0.0000   -0.0000    0.0001   -0.0000    0.0000
    95 X1     1s         0.0001   -0.0001    0.0017   -0.0000    0.0036   -0.0000   -0.0000   -0.0000    0.0000    0.0000
    96 X1     2px        0.0000   -0.0000    0.0000    0.0000   -0.0000    0.0353    0.0150   -0.0195    0.0130    0.2000
    97 X1     2px       -0.0000    0.0000    0.0000    0.0000   -0.0000   -0.0198   -0.0097   -0.0170   -0.0401    0.1623
    98 X1     2px        0.0000   -0.0000   -0.0000    0.0000    0.0000    0.0065    0.0030   -0.0009    0.0056    0.0108
    99 X1     2py       -0.0000   -0.0000    0.0000    0.0000   -0.0000   -0.0176    0.0303   -0.0394   -0.0064    0.4024
   100 X1     2py        0.0000   -0.0000    0.0000    0.0000    0.0000    0.0099   -0.0195   -0.0340    0.0198    0.3266
   101 X1     2py       -0.0000   -0.0000    0.0000    0.0000   -0.0000   -0.0032    0.0059   -0.0020   -0.0027    0.0216
   102 X1     2pz       -0.0001   -0.0002   -0.0000   -0.0110    0.0000   -0.0000    0.0000    0.0002    0.0001   -0.0019
   103 X1     2pz        0.0000    0.0001    0.0000    0.0064   -0.0000    0.0000    0.0000    0.0000   -0.0000   -0.0010
   104 X1     2pz       -0.0000   -0.0000   -0.0000   -0.0020    0.0000   -0.0000    0.0000    0.0000    0.0000   -0.0003
   105 X1     3d2-      -0.0000    0.0000   -0.0000   -0.0000    0.0000   -0.0000    0.0000   -0.0000    0.0000   -0.0000
   106 X1     3d2-       0.0000   -0.0000    0.0000    0.0000   -0.0000    0.0000   -0.0000    0.0000   -0.0000    0.0000
   107 X1     3d2-      -0.0000    0.0000   -0.0000   -0.0000    0.0000   -0.0000    0.0000   -0.0000    0.0000   -0.0000
   108 X1     3d1-       0.0000    0.0000   -0.0000    0.0000    0.0000   -0.0015    0.0004   -0.0071   -0.0081   -0.0023
   109 X1     3d1-       0.0000   -0.0000   -0.0000    0.0000    0.0000   -0.0003    0.0002    0.0713   -0.0431    0.0066
   110 X1     3d1-      -0.0000    0.0000    0.0000   -0.0000    0.0000   -0.0000   -0.0000   -0.0130    0.0053   -0.0028
   111 X1     3d0       -0.0019    0.0010    0.0042   -0.0008    0.0586    0.0000    0.0000   -0.0001   -0.0000   -0.0000
   112 X1     3d0       -0.0021    0.0011   -0.0306   -0.0004    0.0338    0.0000    0.0000   -0.0002   -0.0001    0.0001
   113 X1     3d0        0.0002   -0.0001    0.0048    0.0000   -0.0011   -0.0000   -0.0000    0.0000    0.0000   -0.0000
   114 X1     3d1+       0.0000    0.0000   -0.0000    0.0000    0.0000    0.0031    0.0002   -0.0034    0.0161   -0.0009
   115 X1     3d1+       0.0000    0.0000   -0.0000   -0.0000    0.0000    0.0006    0.0001    0.0358    0.0858    0.0038
   116 X1     3d1+      -0.0000    0.0000    0.0000    0.0000   -0.0000    0.0000   -0.0000   -0.0066   -0.0104   -0.0013
   117 X1     3d2+       0.0000   -0.0000    0.0000    0.0000   -0.0000   -0.0000   -0.0000    0.0000    0.0000   -0.0001
   118 X1     3d2+      -0.0000    0.0000   -0.0000   -0.0000    0.0000    0.0000    0.0000   -0.0000   -0.0000    0.0001
   119 X1     3d2+       0.0000   -0.0000    0.0000    0.0000   -0.0000   -0.0000    0.0000    0.0000   -0.0000   -0.0000


      Orbital                11        12        13        14        15        16        17        18        19        20
      Energy             0.0000    0.0000    0.0000    0.0000    0.0000    0.0102    0.0190    0.0194    0.0211    0.0348
      Occ. No.           0.2004    0.2000    0.0052    0.0042    0.0055    0.0000    0.0000    0.0000    0.0000    0.0000

     1 N1     1s         0.0000   -0.0047   -0.0000   -0.0000   -0.0000   -0.0008    0.0011    0.0000   -0.0000    0.0006
     2 N1     1s         0.0001   -0.1507   -0.0000   -0.0004   -0.0001   -0.0199    0.0335    0.0001   -0.0001    0.0479
     3 N1     1s         0.0000   -0.0023   -0.0001   -0.0001   -0.0000   -0.0001    0.0013    0.0000   -0.0000    0.0014
     4 N1     1s         0.0000   -0.1201   -0.0001   -0.0019   -0.0011    0.0520    0.0605   -0.0001   -0.0010    0.2640
     5 N1     1s        -0.0009   -0.0233   -0.0029   -0.0014    0.0003    0.9237   -1.6702   -0.0077   -0.0095    2.5478
     6 N1     2px        0.1916    0.0000   -1.2221   -0.4219    0.4828   -0.0000   -0.0000    0.0040   -0.0056    0.0000
     7 N1     2px        0.0005   -0.0000    0.1991    0.1174   -0.0632   -0.0000   -0.0000    0.0070   -0.0048   -0.0000
     8 N1     2px        0.0093    0.0000    1.1028    0.3883   -0.4261    0.0000    0.0001   -0.0443    0.0233   -0.0001
     9 N1     2px       -0.0854    0.0003    0.5208   -0.0344   -0.2589    0.0003    0.0003   -0.1545   -0.0570   -0.0039
    10 N1     2py       -0.0952   -0.0000    0.6052   -0.8441    0.9783    0.0002    0.0000   -0.0019   -0.0111   -0.0003
    11 N1     2py       -0.0002    0.0000   -0.0988    0.2349   -0.1283    0.0000    0.0000   -0.0035   -0.0095   -0.0001
    12 N1     2py       -0.0046    0.0000   -0.5461    0.7771   -0.8660   -0.0001   -0.0000    0.0221    0.0465    0.0007
    13 N1     2py        0.0432    0.0010   -0.2653   -0.0700   -0.5163   -0.0020    0.0007    0.0756   -0.1132    0.0059
    14 N1     2pz        0.0000   -0.0988   -0.0001   -0.0000   -0.0000   -0.0057    0.0196    0.0001   -0.0000    0.0165
    15 N1     2pz        0.0000    0.0019    0.0002    0.0002    0.0000   -0.0019    0.0008    0.0000    0.0000   -0.0054
    16 N1     2pz        0.0000   -0.0025   -0.0009   -0.0005    0.0010   -0.0321   -0.0021    0.0001    0.0004   -0.1195
    17 N1     2pz       -0.0002   -0.0423   -0.0028   -0.0057    0.0038   -0.4144   -1.6595   -0.0036    0.0044   -1.1318
    18 N1     3d2-      -0.0000    0.0000    0.0000   -0.0000    0.0000   -0.0000    0.0000    0.0000   -0.0000    0.0000
    19 N1     3d2-      -0.0000    0.0000   -0.0000    0.0000   -0.0000    0.0000   -0.0000    0.0000    0.0000   -0.0000
    20 N1     3d2-      -0.0000    0.0001   -0.0000   -0.0000    0.0001    0.0000    0.0000    0.0000   -0.0000    0.0000
    21 N1     3d1-       0.0016    0.0000   -0.0250    0.0406   -0.0368   -0.0000    0.0000   -0.0001    0.0004    0.0000
    22 N1     3d1-       0.0042    0.0000   -0.0950   -0.0244   -0.2056   -0.0000   -0.0000   -0.0005    0.0005   -0.0000
    23 N1     3d1-      -0.0016   -0.0000   -0.0197   -0.0845   -0.0786    0.0000   -0.0000    0.0000   -0.0011   -0.0001
    24 N1     3d0       -0.0000   -0.0014   -0.0000   -0.0000    0.0000    0.0004   -0.0001    0.0000    0.0000   -0.0008
    25 N1     3d0       -0.0000   -0.0104    0.0001    0.0001   -0.0001    0.0013    0.0048    0.0000    0.0000   -0.0023
    26 N1     3d0       -0.0000   -0.0211    0.0001    0.0002   -0.0002    0.0150   -0.0407   -0.0002   -0.0002    0.0477
    27 N1     3d1+      -0.0032   -0.0000    0.0504    0.0203   -0.0181    0.0000   -0.0000    0.0001    0.0002    0.0000
    28 N1     3d1+      -0.0084   -0.0000    0.1924   -0.0122   -0.1017    0.0000   -0.0000    0.0009    0.0003    0.0000
    29 N1     3d1+       0.0033   -0.0000    0.0399   -0.0421   -0.0393    0.0000    0.0000    0.0000   -0.0006    0.0000
    30 N1     3d2+      -0.0000   -0.0000   -0.0000    0.0000    0.0000    0.0000   -0.0000    0.0000    0.0000   -0.0000
    31 N1     3d2+      -0.0000   -0.0000   -0.0000    0.0000   -0.0000   -0.0000    0.0000    0.0000    0.0000    0.0000
    32 N1     3d2+      -0.0000   -0.0001   -0.0001    0.0001   -0.0001   -0.0000   -0.0000    0.0000    0.0000   -0.0000
    33 N1     4f3-       0.0000    0.0000   -0.0003   -0.0001   -0.0001   -0.0000   -0.0000    0.0000    0.0000    0.0000
    34 N1     4f3-      -0.0001    0.0000    0.0013   -0.0006   -0.0000    0.0000    0.0000   -0.0000   -0.0000   -0.0000
    35 N1     4f2-       0.0000   -0.0000    0.0000    0.0000    0.0000   -0.0000    0.0000    0.0000    0.0000    0.0000
    36 N1     4f2-       0.0000   -0.0000    0.0000   -0.0000   -0.0000    0.0000    0.0000   -0.0000   -0.0000   -0.0000
    37 N1     4f1-      -0.0005   -0.0000   -0.0001   -0.0093   -0.0042    0.0000   -0.0000    0.0003    0.0001    0.0000
    38 N1     4f1-       0.0002    0.0000    0.0273    0.0200    0.0658   -0.0000    0.0000   -0.0001   -0.0007    0.0000
    39 N1     4f0       -0.0000    0.0003    0.0000    0.0000    0.0000    0.0001   -0.0009   -0.0000   -0.0000    0.0006
    40 N1     4f0        0.0000    0.0046   -0.0001   -0.0002    0.0000   -0.0019    0.0023    0.0000    0.0000   -0.0039
    41 N1     4f1+       0.0009   -0.0000    0.0003   -0.0046   -0.0021    0.0000    0.0000   -0.0005    0.0001   -0.0000
    42 N1     4f1+      -0.0003    0.0000   -0.0555    0.0099    0.0326   -0.0000   -0.0000    0.0002   -0.0004   -0.0000
    43 N1     4f2+       0.0000    0.0000    0.0000    0.0000   -0.0000    0.0000   -0.0000   -0.0000    0.0000   -0.0000
    44 N1     4f2+       0.0000    0.0000    0.0000   -0.0000    0.0000   -0.0000   -0.0000   -0.0000   -0.0000    0.0000
    45 N1     4f3+      -0.0000    0.0000    0.0000   -0.0007   -0.0004   -0.0000   -0.0000   -0.0000    0.0000    0.0000
    46 N1     4f3+       0.0000    0.0000   -0.0002   -0.0035   -0.0000    0.0000    0.0000    0.0000   -0.0001   -0.0000
    47 N2     1s        -0.0000   -0.0047   -0.0000   -0.0000   -0.0000    0.0008    0.0011    0.0000    0.0000   -0.0006
    48 N2     1s        -0.0001   -0.1503   -0.0002    0.0001   -0.0002    0.0203    0.0334    0.0001    0.0001   -0.0483
    49 N2     1s         0.0000   -0.0024   -0.0001   -0.0001   -0.0000    0.0001    0.0013    0.0000    0.0000   -0.0014
    50 N2     1s         0.0000   -0.1192   -0.0011    0.0001    0.0018   -0.0508    0.0615    0.0004    0.0009   -0.2652
    51 N2     1s         0.0003   -0.0322    0.0003   -0.0034    0.0042   -0.9275   -1.6610   -0.0021    0.0099   -2.5680
    52 N2     2px        0.0344   -0.0000    0.2933   -0.4937   -0.3614    0.0000    0.0001   -0.0239   -0.0053   -0.0001
    53 N2     2px        0.0035   -0.0000    0.0346    0.1069    0.0210    0.0000   -0.0000    0.0048   -0.0048   -0.0000
    54 N2     2px       -0.0216   -0.0000   -0.2652    0.4623    0.3213   -0.0000    0.0000   -0.0116    0.0222    0.0003
    55 N2     2px       -0.1858   -0.0003   -0.4299   -0.0015    0.2674   -0.0004   -0.0011    0.4368   -0.0581    0.0037
    56 N2     2py       -0.0171   -0.0000   -0.1424   -0.9878   -0.7321    0.0000   -0.0000    0.0118   -0.0106   -0.0001
    57 N2     2py       -0.0017   -0.0000   -0.0175    0.2138    0.0428   -0.0000    0.0000   -0.0024   -0.0095   -0.0001
    58 N2     2py        0.0108   -0.0000    0.1286    0.9249    0.6533    0.0000   -0.0001    0.0059    0.0444    0.0001
    59 N2     2py        0.0915   -0.0010    0.2199   -0.0029    0.5334    0.0007   -0.0003   -0.2166   -0.1175   -0.0070
    60 N2     2pz        0.0000    0.0988   -0.0000   -0.0000    0.0001   -0.0059   -0.0196   -0.0001   -0.0000    0.0168
    61 N2     2pz        0.0000   -0.0021   -0.0001   -0.0001    0.0001   -0.0018   -0.0008    0.0000    0.0000   -0.0054
    62 N2     2pz        0.0000    0.0019    0.0004    0.0014    0.0007   -0.0324    0.0027    0.0001    0.0004   -0.1190
    63 N2     2pz        0.0005    0.0399    0.0039    0.0051   -0.0032   -0.4138    1.6642    0.0062    0.0041   -1.1063
    64 N2     3d2-      -0.0000    0.0000    0.0000   -0.0000    0.0000   -0.0000   -0.0000   -0.0000   -0.0000    0.0000
    65 N2     3d2-       0.0000    0.0000    0.0000    0.0000   -0.0000   -0.0000   -0.0000   -0.0000    0.0000    0.0000
    66 N2     3d2-      -0.0000    0.0003    0.0000   -0.0001   -0.0000   -0.0000    0.0000   -0.0000   -0.0000    0.0000
    67 N2     3d1-      -0.0023   -0.0000   -0.0010   -0.0435   -0.0195    0.0000   -0.0000    0.0003   -0.0004   -0.0000
    68 N2     3d1-      -0.0053   -0.0000   -0.0873   -0.0117   -0.1962    0.0000   -0.0000    0.0007   -0.0002   -0.0000
    69 N2     3d1-       0.0032   -0.0000   -0.0550    0.0635   -0.0901   -0.0000   -0.0000   -0.0020    0.0011   -0.0001
    70 N2     3d0        0.0000   -0.0014   -0.0000   -0.0000    0.0000   -0.0004   -0.0001   -0.0000   -0.0000    0.0008
    71 N2     3d0        0.0000   -0.0105    0.0001    0.0001    0.0001   -0.0013    0.0048    0.0000   -0.0000    0.0023
    72 N2     3d0       -0.0000   -0.0209    0.0001    0.0003    0.0002   -0.0154   -0.0404   -0.0001    0.0002   -0.0476
    73 N2     3d1+       0.0046    0.0000    0.0024   -0.0217   -0.0096    0.0000    0.0000   -0.0006   -0.0002   -0.0000
    74 N2     3d1+       0.0107   -0.0000    0.1772   -0.0057   -0.0971    0.0000    0.0000   -0.0014   -0.0001    0.0000
    75 N2     3d1+      -0.0063    0.0000    0.1107    0.0318   -0.0451   -0.0000   -0.0000    0.0040    0.0006    0.0001
    76 N2     3d2+      -0.0000   -0.0000    0.0000   -0.0000   -0.0000    0.0000    0.0000   -0.0000   -0.0000   -0.0000
    77 N2     3d2+      -0.0000   -0.0000   -0.0000    0.0000    0.0000    0.0000    0.0000    0.0000    0.0000   -0.0000
    78 N2     3d2+       0.0000   -0.0002    0.0001    0.0000   -0.0000    0.0000   -0.0000   -0.0000   -0.0000   -0.0000
    79 N2     4f3-       0.0000   -0.0000    0.0004    0.0006    0.0002   -0.0000    0.0000   -0.0000    0.0000    0.0000
    80 N2     4f3-      -0.0001    0.0000   -0.0000   -0.0018   -0.0007    0.0000    0.0000   -0.0000   -0.0000   -0.0000
    81 N2     4f2-      -0.0000   -0.0000   -0.0000   -0.0000   -0.0000    0.0000    0.0000    0.0000   -0.0000   -0.0000
    82 N2     4f2-      -0.0000    0.0000    0.0000   -0.0000   -0.0000   -0.0000    0.0000   -0.0000   -0.0000   -0.0000
    83 N2     4f1-      -0.0009   -0.0000    0.0057   -0.0057    0.0101    0.0000   -0.0000    0.0001    0.0001   -0.0000
    84 N2     4f1-       0.0002   -0.0000   -0.0323    0.0101   -0.0668   -0.0000   -0.0000   -0.0005   -0.0006   -0.0000
    85 N2     4f0        0.0000   -0.0003   -0.0000   -0.0000    0.0000    0.0001    0.0009    0.0000   -0.0000    0.0006
    86 N2     4f0        0.0000   -0.0046    0.0001    0.0002    0.0000   -0.0020   -0.0023   -0.0000    0.0000   -0.0039
    87 N2     4f1+       0.0018   -0.0000   -0.0115   -0.0029    0.0050   -0.0000    0.0000   -0.0003    0.0001    0.0000
    88 N2     4f1+      -0.0004   -0.0000    0.0653    0.0050   -0.0331   -0.0000   -0.0000    0.0011   -0.0003    0.0000
    89 N2     4f2+      -0.0000    0.0000   -0.0000   -0.0000    0.0000   -0.0000   -0.0000    0.0000   -0.0000    0.0000
    90 N2     4f2+       0.0000   -0.0000    0.0001   -0.0000    0.0000    0.0000   -0.0000   -0.0000   -0.0000    0.0000
    91 N2     4f3+      -0.0000    0.0000   -0.0001    0.0033    0.0012   -0.0000   -0.0000    0.0000    0.0000    0.0000
    92 N2     4f3+       0.0000    0.0000    0.0001   -0.0100   -0.0040    0.0000    0.0000   -0.0000   -0.0002   -0.0000
    93 X1     1s         0.0004    0.6761    0.0021    0.0039   -0.0038    0.0088    4.7863    0.0141   -0.0006    0.0240
    94 X1     1s        -0.0001    0.4623   -0.0001   -0.0003    0.0009   -0.0177   -5.6695   -0.0166    0.0006   -0.0121
    95 X1     1s        -0.0000    0.0413   -0.0001   -0.0000   -0.0002    0.0126    3.7319    0.0108   -0.0003    0.0039
    96 X1     2px       -0.3910   -0.0001   -0.1490   -0.0507    0.0002    0.0003    0.0026   -0.8955    0.4862    0.0016
    97 X1     2px       -0.3153    0.0002   -0.0859   -0.0975    0.0133   -0.0006   -0.0066    2.2806   -1.2452   -0.0037
    98 X1     2px       -0.0153   -0.0002   -0.0077    0.0053   -0.0012    0.0009    0.0061   -2.1164    1.0998    0.0023
    99 X1     2py        0.1945    0.0004    0.0740   -0.0999    0.0004    0.0027   -0.0013    0.4476    0.9729    0.0076
   100 X1     2py        0.1562   -0.0004    0.0434   -0.1960    0.0275   -0.0053    0.0033   -1.1400   -2.4913   -0.0177
   101 X1     2py        0.0078    0.0002    0.0035    0.0106   -0.0028    0.0075   -0.0030    1.0578    2.2003    0.0108
   102 X1     2pz       -0.0006    0.0018   -0.0009    0.0012   -0.0001    0.8705   -0.0049   -0.0025   -0.0082    2.1658
   103 X1     2pz       -0.0003   -0.0001   -0.0000    0.0003   -0.0005   -1.2919    0.0059    0.0045    0.0151   -3.7457
   104 X1     2pz       -0.0001    0.0001   -0.0001    0.0001    0.0000    1.7110   -0.0066   -0.0039   -0.0121    2.0650
   105 X1     3d2-       0.0000    0.0004    0.0000    0.0002   -0.0002    0.0000   -0.0002   -0.0000    0.0000   -0.0002
   106 X1     3d2-      -0.0001    0.0005   -0.0000   -0.0003    0.0001    0.0001    0.0004    0.0000   -0.0000    0.0003
   107 X1     3d2-       0.0000    0.0002    0.0000    0.0001   -0.0000    0.0001   -0.0004   -0.0000    0.0000   -0.0010
   108 X1     3d1-      -0.0033   -0.0002   -0.0378   -0.0378   -0.1283   -0.0000   -0.0001   -0.0052   -0.0003   -0.0005
   109 X1     3d1-       0.0015   -0.0004    0.0491   -0.0018    0.0740    0.0005   -0.0003   -0.0598   -0.0015   -0.0030
   110 X1     3d1-      -0.0065    0.0000   -0.0112   -0.0027   -0.0264   -0.0005    0.0001    0.0471   -0.0006    0.0018
   111 X1     3d0        0.0002   -0.0364    0.0011    0.0015   -0.0007    0.0005    0.3670    0.0011   -0.0000    0.0020
   112 X1     3d0        0.0001   -0.0331    0.0012    0.0020   -0.0014   -0.0006    0.8020    0.0024   -0.0001    0.0078
   113 X1     3d0        0.0000   -0.0186   -0.0001   -0.0001    0.0003    0.0012   -0.1131   -0.0004    0.0001   -0.0041
   114 X1     3d1+       0.0064   -0.0000    0.0793   -0.0189   -0.0629    0.0000   -0.0000    0.0104   -0.0001    0.0003
   115 X1     3d1+      -0.0034   -0.0002   -0.0930   -0.0010    0.0386   -0.0001   -0.0003    0.1211   -0.0004    0.0017
   116 X1     3d1+       0.0132    0.0002    0.0219   -0.0015   -0.0136    0.0001    0.0002   -0.0957   -0.0005   -0.0011
   117 X1     3d2+       0.0001   -0.0003   -0.0002   -0.0002    0.0002   -0.0000    0.0001   -0.0000    0.0000    0.0002
   118 X1     3d2+      -0.0000   -0.0004    0.0002    0.0000   -0.0001   -0.0000   -0.0003    0.0000   -0.0001   -0.0003
   119 X1     3d2+       0.0000   -0.0001   -0.0000    0.0001    0.0000   -0.0001    0.0003   -0.0000    0.0001    0.0007


      Orbital                21        22        23        24        25        26        27        28        29        30
      Energy             0.0462    0.0499    0.0499    0.0508    0.0548    0.0851    0.0901    0.0912    0.0986    0.1255
      Occ. No.           0.0000    0.0000    0.0000    0.0000    0.0000    0.0000    0.0000    0.0000    0.0000    0.0000

     1 N1     1s         0.0064   -0.0000    0.0000    0.0000    0.0000    0.0000    0.0011   -0.0039   -0.0000    0.0114
     2 N1     1s         0.0253    0.0001   -0.0000    0.0000    0.0000    0.0003    0.0845   -0.0991   -0.0008    0.0280
     3 N1     1s         0.0032   -0.0000    0.0000    0.0000    0.0000    0.0000   -0.0014   -0.0016   -0.0000    0.0069
     4 N1     1s         0.2863    0.0007   -0.0003    0.0005    0.0005   -0.0024   -0.0918    0.7947    0.0073    0.6374
     5 N1     1s         4.1525    0.0004   -0.0002    0.0048    0.0049   -0.0238    4.8881    8.0243    0.0750    9.7522
     6 N1     2px        0.0000    0.0000    0.0000    0.0293   -0.0119   -0.0175   -0.0000   -0.0002    0.0228   -0.0000
     7 N1     2px        0.0000    0.0000    0.0000    0.0150   -0.0064    0.0066    0.0000    0.0000   -0.0044    0.0000
     8 N1     2px       -0.0000    0.0005   -0.0001    0.2987   -0.1779   -0.1951    0.0000   -0.0008    0.0036    0.0000
     9 N1     2px       -0.0004    0.0142   -0.0019    8.2424   -4.6192   -3.5052    0.0011   -0.0117   -0.4948   -0.0000
    10 N1     2py        0.0000   -0.0000    0.0000   -0.0147   -0.0240    0.0085   -0.0000   -0.0002    0.0456   -0.0000
    11 N1     2py        0.0000   -0.0000   -0.0000   -0.0075   -0.0129   -0.0033    0.0000    0.0001   -0.0088    0.0000
    12 N1     2py        0.0003   -0.0002   -0.0001   -0.1481   -0.3587    0.0965   -0.0001    0.0004    0.0080    0.0002
    13 N1     2py        0.0079   -0.0055   -0.0018   -4.0903   -9.3134    1.7261   -0.0010    0.0180   -0.9679    0.0040
    14 N1     2pz       -0.0124    0.0001   -0.0000    0.0000    0.0000    0.0001    0.0503   -0.0256   -0.0002    0.0525
    15 N1     2pz       -0.0169   -0.0000    0.0000   -0.0000   -0.0000    0.0001   -0.0003   -0.0288   -0.0003   -0.0425
    16 N1     2pz        0.1658   -0.0008    0.0003   -0.0001   -0.0000    0.0013   -0.0197   -0.4734   -0.0042    0.3469
    17 N1     2pz        5.9282   -0.0126    0.0049    0.0012    0.0033    0.0097    4.0831   -3.4951   -0.0246   13.7816
    18 N1     3d2-      -0.0000   -0.0007   -0.0002    0.0000   -0.0000    0.0000    0.0000   -0.0000    0.0000   -0.0000
    19 N1     3d2-       0.0000    0.0116    0.0033   -0.0000    0.0000   -0.0000    0.0000   -0.0000   -0.0000    0.0000
    20 N1     3d2-      -0.0001   -0.0576   -0.0162    0.0001   -0.0000   -0.0000   -0.0000    0.0001    0.0000   -0.0002
    21 N1     3d1-       0.0000    0.0000   -0.0000    0.0000   -0.0009    0.0008   -0.0000    0.0000   -0.0011    0.0000
    22 N1     3d1-      -0.0000    0.0000    0.0000    0.0181    0.0398   -0.0076    0.0000   -0.0000   -0.0026   -0.0000
    23 N1     3d1-      -0.0001    0.0001    0.0000    0.0642    0.1500   -0.0264    0.0000   -0.0003    0.0264   -0.0001
    24 N1     3d0        0.0020   -0.0000    0.0000    0.0000    0.0000   -0.0000    0.0023    0.0021    0.0000   -0.0020
    25 N1     3d0       -0.0066    0.0000   -0.0000   -0.0000   -0.0000   -0.0000    0.0027    0.0197    0.0002   -0.0322
    26 N1     3d0       -0.0942    0.0002   -0.0001    0.0000   -0.0000   -0.0004    0.1819    0.1468    0.0014   -0.2013
    27 N1     3d1+      -0.0000    0.0000   -0.0000   -0.0000   -0.0004   -0.0015    0.0000   -0.0000   -0.0006    0.0000
    28 N1     3d1+       0.0000   -0.0001    0.0000   -0.0365    0.0198    0.0155   -0.0000    0.0001   -0.0013    0.0000
    29 N1     3d1+       0.0000   -0.0002    0.0000   -0.1293    0.0744    0.0536   -0.0000    0.0001    0.0134   -0.0000
    30 N1     3d2+       0.0000    0.0002   -0.0007   -0.0000    0.0000   -0.0000   -0.0000    0.0000    0.0000    0.0000
    31 N1     3d2+      -0.0000   -0.0033    0.0116    0.0000   -0.0000   -0.0000   -0.0000    0.0000    0.0000   -0.0000
    32 N1     3d2+       0.0001    0.0162   -0.0576   -0.0000    0.0000   -0.0000    0.0000   -0.0000   -0.0000    0.0001
    33 N1     4f3-      -0.0000    0.0000   -0.0000    0.0000   -0.0000   -0.0000    0.0000    0.0000   -0.0000   -0.0000
    34 N1     4f3-       0.0000   -0.0000    0.0000   -0.0000    0.0000    0.0000   -0.0000   -0.0000    0.0001   -0.0000
    35 N1     4f2-      -0.0000    0.0001    0.0000   -0.0000   -0.0000   -0.0000    0.0000   -0.0000   -0.0000    0.0000
    36 N1     4f2-       0.0000   -0.0000   -0.0000   -0.0000    0.0000    0.0000    0.0000    0.0000    0.0000   -0.0000
    37 N1     4f1-       0.0000   -0.0000    0.0000   -0.0005   -0.0006    0.0001   -0.0000   -0.0000    0.0014   -0.0000
    38 N1     4f1-       0.0000   -0.0000   -0.0000   -0.0103   -0.0233    0.0037   -0.0000    0.0000   -0.0032    0.0000
    39 N1     4f0       -0.0001   -0.0000    0.0000    0.0000   -0.0000    0.0000    0.0019   -0.0003   -0.0000    0.0014
    40 N1     4f0        0.0108   -0.0000    0.0000    0.0000    0.0000    0.0000   -0.0159   -0.0135   -0.0001    0.0257
    41 N1     4f1+       0.0000    0.0000   -0.0000    0.0010   -0.0003   -0.0003   -0.0000   -0.0000    0.0007   -0.0000
    42 N1     4f1+      -0.0000    0.0000   -0.0000    0.0208   -0.0116   -0.0075    0.0000   -0.0000   -0.0016    0.0000
    43 N1     4f2+       0.0000   -0.0000    0.0001   -0.0000    0.0000    0.0000   -0.0000    0.0000   -0.0000   -0.0000
    44 N1     4f2+      -0.0000    0.0000   -0.0000   -0.0000   -0.0000    0.0000   -0.0000   -0.0000    0.0000    0.0000
    45 N1     4f3+      -0.0000    0.0000   -0.0000   -0.0000   -0.0000    0.0000    0.0000    0.0000   -0.0000    0.0000
    46 N1     4f3+       0.0000   -0.0000    0.0000    0.0000    0.0000   -0.0000   -0.0000   -0.0000    0.0003   -0.0000
    47 N2     1s         0.0063   -0.0000    0.0000    0.0000    0.0000   -0.0000    0.0013    0.0039    0.0000    0.0114
    48 N2     1s         0.0249    0.0001   -0.0000    0.0000   -0.0000   -0.0002    0.0879    0.0964    0.0010    0.0282
[...]
  of open shells. (u,d: Spin up or down).
  SGUGA info is (Midvert:IsyUp:UpperWalk/LowerWalk)
        Conf  SGUGA info        Occupation     Coefficient         Weight
           3  ( 1:1:   1/   3)   u2d0000000       0.071735       0.005146
           7  ( 1:1:   1/   7)   2u0d000000       0.080547       0.006488
          22  ( 1:1:   1/  22)   u200d00000      -0.683025       0.466524
          27  ( 1:1:   1/  27)   u020d00000       0.099225       0.009846
          33  ( 1:1:   1/  33)   0udud00000      -0.088425       0.007819
          51  ( 2:1:   1/   1)   2u000d0000       0.687345       0.472443
         126  ( 2:1:   1/  16)   u0ud0d0000      -0.088303       0.007798
         141  ( 2:1:   1/  19)   0u020d0000       0.099373       0.009875

  The CI coefficients for the MIXED state nr.  10
--------------------------------------------------------------------------------
 CI COEFFICIENTS LARGER THAN  0.50D-01
  Occupation of active orbitals, and spin coupling
  of open shells. (u,d: Spin up or down).
  SGUGA info is (Midvert:IsyUp:UpperWalk/LowerWalk)
        Conf  SGUGA info        Occupation     Coefficient         Weight
           2  ( 1:1:   1/   2)   2ud0000000      -0.052922       0.002801
          21  ( 1:1:   1/  21)   2u00d00000       0.739606       0.547018
          36  ( 1:1:   1/  36)   u0udd00000      -0.092486       0.008554
          39  ( 1:1:   1/  39)   0u02d00000       0.104140       0.010845
          56  ( 2:1:   1/   2)   u2000d0000       0.627118       0.393277
          81  ( 2:1:   1/   7)   u0200d0000      -0.088286       0.007794
         111  ( 2:1:   1/  13)   0udu0d0000       0.078967       0.006236

--

--- Stop Module: caspt2 at Wed Apr 29 15:40:08 2020 /rc=_RC_ALL_IS_WELL_ ---
*** files: xmldump
    saved to directory /home/gayverjr/OpenCAP/molcas_test/N2
--- Module caspt2 spent 3 minutes 38 seconds ---

--- Start Module: rassi at Wed Apr 29 15:40:08 2020 ---

()()()()()()()()()()()()()()()()()()()()()()()()()()()()()()()()()()()()()()()()()()()()()()()()()()

                                               &RASSI

                                   only a single process is used
                       available to each process: 20 GB of memory, 16 threads
()()()()()()()()()()()()()()()()()()()()()()()()()()()()()()()()()()()()()()()()()()()()()()()()()()


      ********************************************************************************
      *                                                                              *
      *                             General data section                             *
      *                                                                              *
      ********************************************************************************

   Specific data for JOBIPH file JOBIPH                                                                                                                          
   -------------------------------------

   Header from SEWARD:
                                                                               
        Integrals generated by seward 4.2.0  , Wed Apr 29 15:29:03 2020        

   CASSCF title (first line only):
       cas 3,9 test                                                            

   STATE IRREP:                            1
   SPIN MULTIPLICITY:                      1
   ACTIVE ELECTRONS:                       4
   MAX RAS1 HOLES:                         0
   MAX RAS3 ELECTRONS:                     0
   NR OF CONFIG:                         825

  Info: creating TDMFILE
        estimated file size                 14935 kB
        TDMs in AO format


   The following data are common to all the states:
   ------------------------------------------------
   (note: frozen counts as inactive, deleted as secondary)

      Nr of irreps: 1

                 Total     No./Irrep 
      Irrep                  1
                             a

      INACTIVE       5       5
      ACTIVE        10      10
      SECONDARY    104     104
      BASIS        119     119

      RAS1           0       0
      RAS2          10      10
      RAS3           0       0

        MATRIX ELEMENTS WILL BE COMPUTED FOR THE FOLLOWING ONE-ELECTRON OPERATORS, UNLESS ZERO BY SYMMETRY.
   (Herm=Hermitian, Anti=Antihermitian, Sing=Singlet operator, Trip=Triplet operator)
     MLTPL  0   1 (HERMSING)     MLTPL  1   1 (HERMSING)     MLTPL  1   2 (HERMSING)
     MLTPL  1   3 (HERMSING)     MLTPL  2   1 (HERMSING)     MLTPL  2   2 (HERMSING)
     MLTPL  2   3 (HERMSING)     MLTPL  2   4 (HERMSING)     MLTPL  2   5 (HERMSING)
     MLTPL  2   6 (HERMSING)     VELOCITY   1 (ANTISING)     VELOCITY   2 (ANTISING)
     VELOCITY   3 (ANTISING)     ANGMOM     1 (ANTISING)     ANGMOM     2 (ANTISING)
     ANGMOM     3 (ANTISING)     MLTPV  2   1 (ANTISING)     MLTPV  2   2 (ANTISING)
     MLTPV  2   3 (ANTISING)     MLTPV  2   4 (ANTISING)     MLTPV  2   5 (ANTISING)
     MLTPV  2   6 (ANTISING)

       EIGENSTATES OF A SPIN-FREE HAMILTONIAN WILL BE COMPUTED BASED ON:

  a (effective) Hamiltonian matrix that was read from the wavefunction file(s).
  SO coupling elements will be added.
       EIGENSTATES OF SPIN-ORBIT HAMILTONIAN WILL BE COMPUTED
        MATRIX ELEMENTS OVER SPIN EIGENSTATES FOR:
     MLTPL  0   1 (HERMSING)     MLTPL  1   1 (HERMSING)     MLTPL  1   2 (HERMSING)
     MLTPL  1   3 (HERMSING)     MLTPL  2   1 (HERMSING)     MLTPL  2   2 (HERMSING)
     MLTPL  2   3 (HERMSING)     MLTPL  2   4 (HERMSING)     MLTPL  2   5 (HERMSING)
     MLTPL  2   6 (HERMSING)     VELOCITY   1 (ANTISING)     VELOCITY   2 (ANTISING)
     VELOCITY   3 (ANTISING)     ANGMOM     1 (ANTISING)     ANGMOM     2 (ANTISING)
     ANGMOM     3 (ANTISING)     MLTPV  2   1 (ANTISING)     MLTPV  2   2 (ANTISING)
     MLTPV  2   3 (ANTISING)     MLTPV  2   4 (ANTISING)     MLTPV  2   5 (ANTISING)
     MLTPV  2   6 (ANTISING)

  Nr of states:                   10

   State:        1   2   3   4   5   6   7   8   9  10
  JobIph:        1   1   1   1   1   1   1   1   1   1
 Root nr:        1   2   3   4   5   6   7   8   9  10

  HAMILTONIAN MATRIX FOR THE ORIGINAL STATES:

  Diagonal, with energies
   -109.34997547   -108.98803802   -108.96969626   -108.97223089   -108.85649378
   -108.85658327   -108.82544772   -108.82664282   -108.82427546   -108.82091514

      OVERLAP MATRIX FOR THE ORIGINAL STATES:

  Diagonal, with elements
      1.00000000      1.00000000      1.00000000      1.00000000      1.00000000
      1.00000000      1.00000000      1.00000000      1.00000000      1.00000000

::    RASSI State    1     Total energy:   -109.34997547
::    RASSI State    2     Total energy:   -108.98803802
::    RASSI State    3     Total energy:   -108.96969626
::    RASSI State    4     Total energy:   -108.97223089
::    RASSI State    5     Total energy:   -108.85649378
::    RASSI State    6     Total energy:   -108.85658327
::    RASSI State    7     Total energy:   -108.82544772
::    RASSI State    8     Total energy:   -108.82664282
::    RASSI State    9     Total energy:   -108.82427546
::    RASSI State   10     Total energy:   -108.82091514



      ****************************************************************************************************
      *                                                                                                  *
      *                                         Spin-free section                                        *
      *                                                                                                  *
      *                 Note: index according to input order, order according to energy.                 *
      *                                                                                                  *
      ****************************************************************************************************



  SPIN-FREE ENERGIES:
  (Shifted by EMIN (a.u.) =       -109.3499754747)

 SF State       Relative EMIN(au)   Rel lowest level(eV)    D:o, cm**(-1)

     1             0.0000000000        0.0000000000              0.0000
     2             0.3619374540        9.8488198576          79436.0893
     4             0.3777445807       10.2789536872          82905.3526
     3             0.3802792103       10.3479244730          83461.6395
     6             0.4933922091       13.4258859721         108287.0732
     5             0.4934816952       13.4283210129         108306.7131
     8             0.5233326547       14.2406070018         114858.2415
     7             0.5245277552       14.2731273426         115120.5357
     9             0.5257000176       14.3050262272         115377.8176
    10             0.5290603369       14.3964651747         116115.3224

++ Dipole transition strengths (spin-free states):
   -----------------------------------------------
     for osc. strength at least  1.00000000E-05

      From   To        Osc. strength     Einstein coefficients Ax, Ay, Az (sec-1)    Total A (sec-1)
     -----------------------------------------------------------------------------------------------
         1    3       1.05166366E-03  1.74160150E-03  1.57448189E-01  4.88644375E+06  4.88644391E+06
         1    6       8.65843549E-02  1.34785137E+08  5.42442801E+08  2.80083034E+01  6.77227967E+08
         1    5       9.95358179E-02  6.23763365E+08  1.55048149E+08  1.10323702E+01  7.78811524E+08
         1    8       4.79953836E-05  1.61695100E-02  3.65729355E+00  4.22340027E+05  4.22343700E+05
         1   10       1.00420628E-03  6.91816775E+00  3.42844652E-02  9.03116737E+06  9.03117432E+06
         2    4       1.29854788E-05  4.76751729E-04  7.42343692E-05  1.04249126E+02  1.04249677E+02
         2    6       1.92461468E-04  8.52041247E+04  2.16483786E+04  5.55533431E+00  1.06858059E+05
         2    7       1.40066970E-02  2.58268710E+01  8.82834497E+01  1.18968428E+07  1.18969569E+07
         2    9       1.47338893E-02  6.12489975E-02  1.53019895E+01  1.26957107E+07  1.26957260E+07
         4    6       6.68234653E-04  2.29553600E+05  5.75882217E+04  1.11658460E+01  2.87152988E+05
         4    7       1.72700112E-02  3.89202867E+00  3.40068086E+01  1.19551403E+07  1.19551782E+07
         4    9       7.38987169E-03  8.72851461E+00  1.07943580E+00  5.19767140E+06  5.19768120E+06
         3    6       1.13866395E-04  9.24327189E+03  3.75635062E+04  2.45074510E+00  4.68092288E+04
         3    5       9.44350192E-04  3.11152104E+05  7.76668834E+04  7.53122897E+00  3.88826518E+05
         3    8       2.52462153E-02  1.12511118E+00  2.92303548E+01  1.65998059E+07  1.65998362E+07
         3   10       8.20539627E-04  1.81520143E+01  3.35917929E+01  5.83535955E+05  5.83587699E+05
         6    8       1.27274193E-01  7.30179184E+05  2.93558961E+06  2.26711930E+01  3.66579147E+06
         6    7       3.22688261E-02  8.04916965E+05  2.00177201E+05  6.31314415E-01  1.00509480E+06
         6    9       2.88454423E-01  7.74894953E+06  1.92497760E+06  6.08785423E+00  9.67393322E+06
         6   10       2.06194147E-01  1.67757274E+06  6.75082250E+06  5.73184221E+01  8.42845255E+06
         5    8       1.71875519E-01  3.94078215E+06  9.80080225E+05  3.15022530E+00  4.92086552E+06
         5    7       2.80913032E-01  1.73329188E+06  6.96618297E+06  5.44608558E+01  8.69952931E+06
         5    9       3.40471027E-02  2.25947277E+05  9.09571087E+05  7.13049354E+00  1.13552550E+06
         5   10       1.44594014E-01  4.71025770E+06  1.17058574E+06  4.15867677E+00  5.88084760E+06
         8   10       3.14070117E-05  2.38579796E-04  1.18765072E-05  3.31048818E+01  3.31051323E+01
     -----------------------------------------------------------------------------------------------
--

++ Velocity transition strengths (spin-free states):
   -------------------------------------------------
     for osc. strength at least  1.00000000E-05

      From   To        Osc. strength     Einstein coefficients Ax, Ay, Az (sec-1)    Total A (sec-1)
     -----------------------------------------------------------------------------------------------
         1    3       1.83866163E-03  3.59344299E-02  3.16969791E-02  8.54314664E+06  8.54314671E+06
         1    6       5.15318969E-02  8.02695467E+07  3.22792205E+08  1.59316183E-02  4.03061751E+08
         1    5       4.66433583E-02  2.92360257E+08  7.25976620E+07  1.25488682E-01  3.64957919E+08
         1    8       2.15009190E-04  1.27131473E+00  1.86038683E+00  1.89200751E+06  1.89201065E+06
         1   10       2.14478304E-03  3.07652384E+00  2.19958561E-02  1.92887725E+07  1.92887756E+07
         2    4       4.03667264E-05  7.93500140E-05  2.91884787E-06  3.24071002E+02  3.24071085E+02
         2    6       2.18508066E-04  9.71689758E+04  2.41503120E+04  3.09019422E-01  1.21319597E+05
         2    7       4.64782256E-03  1.58286903E+01  4.62432044E+01  3.94768840E+06  3.94775047E+06
         2    9       9.04834988E-03  1.72939841E-05  9.78222443E+00  7.79666692E+06  7.79667670E+06
         4    6       8.92615747E-04  3.06776606E+05  7.67963102E+04  8.43825326E-01  3.83573760E+05
         4    7       9.25455108E-03  2.26231206E+00  2.10850676E+01  6.40644660E+06  6.40646994E+06
         4    9       7.66737982E-03  6.76141775E+00  1.31408456E-01  5.39286022E+06  5.39286711E+06
         3    6       2.77584407E-05  2.33495903E+03  9.07610693E+03  1.25232456E-01  1.14111912E+04
         3    5       5.07095008E-04  1.66911417E+05  4.18791861E+04  5.72461788E-01  2.08791176E+05
         3    8       1.62072928E-02  5.72119375E-01  2.09065161E+01  1.06565622E+07  1.06565837E+07
         3   10       9.79548108E-05  1.19899974E+01  1.70913881E+01  6.96387576E+04  6.96678390E+04
         6    8       1.00181437E-01  5.74587802E+05  2.31083206E+06  3.75046335E+01  2.88545736E+06
         6    7       2.41496162E-02  6.02335038E+05  1.49865739E+05  5.41512513E-01  7.52201319E+05
         6    9       2.09626223E-01  5.63096169E+06  1.39929526E+06  4.77290630E+00  7.03026172E+06
         6   10       2.12516677E-01  1.72951096E+06  6.95731813E+06  6.50358080E+01  8.68689412E+06
         5    8       1.51313911E-01  3.46912358E+06  8.63051877E+05  2.94388596E+00  4.33217840E+06
         5    7       2.23542415E-01  1.37898722E+06  5.54376136E+06  8.36490446E+01  6.92283222E+06
         5    9       2.64950072E-02  1.75779499E+05  7.07861360E+05  1.01379859E+01  8.83650996E+05
         5   10       1.42436172E-01  4.64012974E+06  1.15295250E+06  2.80706347E+00  5.79308505E+06
         8   10       1.14303544E-03  5.52910262E-04  3.16461774E-03  1.20483359E+03  1.20483731E+03
         7    9       2.34772668E-05  9.21163224E-07  8.06634071E-06  1.03658355E+00  1.03659254E+00
     -----------------------------------------------------------------------------------------------
--

++ Length and velocity gauge comparison (spin-free states):
   --------------------------------------------------------

 --------------------------------------------------
 A comparison between the dipole oscillator strengths in 
 length and velocity gauge will be performed

 All dipole oscillator differences above the tolerance of   0.10000000000000001       will be printed 

 Due to basis set deficiency these oscillator may be problematic 

 The tolerance is defined as ABS(1-O_l/O_v) 
 O_l : dipole oscillator strength in length gauge
 O_p : dipole oscillator strength in velocity gauge
 --------------------------------------------------

  Problematic transitions have been found

      From   To       Difference (%) Osc. st. (len.) Osc. st. (vel.)
     ---------------------------------------------------------------
         1    3            42.802762  1.05166366E-03  1.83866163E-03
         1    6            68.020896  8.65843549E-02  5.15318969E-02
         1    5           113.397623  9.95358179E-02  4.66433583E-02
         1    8            77.677520  4.79953836E-05  2.15009190E-04
         1   10            53.179121  1.00420628E-03  2.14478304E-03
         2    4            67.831231  1.29854788E-05  4.03667264E-05
         2    6            11.920200  1.92461468E-04  2.18508066E-04
         2    7           201.360407  1.40066970E-02  4.64782256E-03
         2    9            62.835096  1.47338893E-02  9.04834988E-03
         4    6            25.137479  6.68234653E-04  8.92615747E-04
         4    7            86.611009  1.72700112E-02  9.25455108E-03
         3    6           310.204579  1.13866395E-04  2.77584407E-05
         3    5            86.227467  9.44350192E-04  5.07095008E-04
         3    8            55.770711  2.52462153E-02  1.62072928E-02
         3   10           737.671596  8.20539627E-04  9.79548108E-05
         6    8            27.043689  1.27274193E-01  1.00181437E-01
         6    7            33.620451  3.22688261E-02  2.41496162E-02
         6    9            37.604169  2.88454423E-01  2.09626223E-01
         5    8            13.588709  1.71875519E-01  1.51313911E-01
         5    7            25.664309  2.80913032E-01  2.23542415E-01
         5    9            28.503844  3.40471027E-02  2.64950072E-02
         8   10            97.252315  3.14070117E-05  1.14303544E-03
         7    9      --------------- below threshold  2.34772668E-05
     ---------------------------------------------------------------

 Number of problematic transitions =                    23

--

 Electric-dipole - electric-octupole not included
 Electric-dipole - magnetic-quadrupole not included


      ****************************************************************************************************
      *                                                                                                  *
      *                                    Special properties section                                    *
      *                                                                                                  *
      ****************************************************************************************************


++ I/O STATISTICS
 
  I. General I/O information
  - - - - - - - - - - - - - - - - - - - - - - - - - - - - - - - - - - - - - - - - - - -
  Unit  Name          Flsize      Write/Read            MBytes           Write/Read
                      (MBytes)       Calls              In/Out           Time, sec.
  - - - - - - - - - - - - - - - - - - - - - - - - - - - - - - - - - - - - - - - - - - -
   1  SCRATCH           0.16 .      10/      55 .      0.2/      0.8 .       0/       0
   2  ANNI              0.00 .       0/       0 .      0.0/      0.0 .       0/       0
   3  RUNFILE          13.56 .     182/    3422 .      1.3/     24.8 .       0/       0
   4  ONEINT            2.94 .       0/   11001 .      0.0/   3392.7 .       0/       0
   5  JOBIPH            3.92 .       0/      98 .      0.0/      1.6 .       0/       0
   6  TDMFILE          11.92 .     110/     110 .     11.9/     11.9 .       0/       0
  - - - - - - - - - - - - - - - - - - - - - - - - - - - - - - - - - - - - - - - - - - -
   *  TOTAL            32.49 .     302/   14686 .     13.3/   3431.7 .       0/       0
  - - - - - - - - - - - - - - - - - - - - - - - - - - - - - - - - - - - - - - - - - - -
 
  II. I/O Access Patterns
  - - - - - - - - - - - - - - - - - - - -
  Unit  Name               % of random
                         Write/Read calls
  - - - - - - - - - - - - - - - - - - - -
   1  SCRATCH             90.0/ 100.0
   2  ANNI                 0.0/   0.0
   3  RUNFILE             28.6/  10.8
   4  ONEINT               0.0/  32.9
   5  JOBIPH               0.0/  75.5
   6  TDMFILE             99.1/ 100.0
  - - - - - - - - - - - - - - - - - - - -
--
--- Stop Module: rassi at Wed Apr 29 15:40:10 2020 /rc=_RC_ALL_IS_WELL_ ---
*** files: gs_mscaspt2.rassi.h5 xmldump
    saved to directory /home/gayverjr/OpenCAP/molcas_test/N2
--- Module rassi spent 1 second ---

    Timing: Wall=668.12 User=6452.87 System=564.22
