******************************************************
*** WorkDir and CurrDir are the same, not cleaned! ***
******************************************************
   This run of MOLCAS is using the pymolcas driver

                             OPE
                             OPE          NMOL  CASOP  ENMOLC A   SO
                 OPE        NMOLC        AS  OP EN  MO LC     AS  OP
                OPENM       OL CA        SO  PE NM  OL CA     SOP EN
                OP EN      MO   LC       AS  OP ENMOL  CASO   PENMOL
                OP  EN     MO   LC       AS  OP EN     MO     LC ASO
               OP   E  NMOL  C  AS       OP  EN MO     LC     AS  OP
               OP  E   NMO   LC AS        OPEN  MO     LCASOP EN   M
               O  PEN   MO  LCA  SO
            OPE   NMO   L   CAS    OP
        OPENMOL  CASOP     ENMOL   CASOPE
     OPENMOLCA   SOPENMOLCASOPEN   MOLCASOPE
    OPENMOLCAS   OP           EN   MOL    CAS
    OPENMOLCAS       OP  ENM        O     LCA
    OPENMOLCAS    OPEN  MOLCASO     P  E  NMO
    OPENMOLCAS     OP               E  N  MOL
    OPENMOLCA   SO           PENM   O  L  CAS    OPEN    MO    LCAS
    OPENMOLCA   SOP           ENM   O  L  CAS   OP  EN  MOLC  AS   O
    OPENMOLCA   SOPE           NM      O  LCA   S      OP  EN MO
    OPENMOLC                AS         O  PEN   M      OL  CA  SOPE
    OPENMO        LCASOPE  NMOL        C  ASO   P      ENMOLC     AS
    OPE     NMO      LCA  SO     P     E   NM   OL  CA SO  PE N   MO
          OPENMOLCA            SOPE   NMO        LCAS  O    P  ENMO
     OPENMOLCASOPENMOLCASOPENMOLCASOPENMOLCA
        OPENMOLCASOPENMOLCASOPENMOLCASOPE
            OPENMOLCASOPENMOLCASOPENM
               OPENMOLCASOPENMOLCA        version: 19.11
                   OPENMOLCASO
                       OPE                tag: 17-g792ff65

 OpenMolcas is free software; you can redistribute it and/or modify it
 under the terms of the GNU Lesser General Public License version 2.1.
 OpenMolcas is distributed in the hope that it will be useful, but it
 is provided "as is" and without any express or implied warranties.
 For more details see the full text of the license in the file
 LICENSE or in <http://www.gnu.org/licenses/>.

                 Copyright (C) The OpenMolcas Authors
           For the author list and the recommended citation,
                   consult the file CONTRIBUTORS.md

           *************************************************
           * pymolcas version py2.06                       *
           *   build 4d36a5e527230be6c379624704f71306      *
           *   (after the EMIL interpreter by V. Veryazov) *
           *************************************************

configuration info
------------------
C Compiler ID: GNU
C flags: -std=gnu99 -fopenmp
Fortran Compiler ID: GNU
Fortran flags: -cpp -fno-aggressive-loop-optimizations -fdefault-integer-8 -fopenmp
Definitions: _MOLCAS_;_I8_;_LINUX_;_MKL_;_DMRG_
Parallel: OFF (GA=OFF)


   ----------------------------------------------------------------------
  |
  |             Project: gs
  |      Submitted from: /scratch/gayverjr/gs.3374923458
  |        Scratch area: /scratch/gayverjr/gs.3374923458
  |     Save outputs to: /home/gayverjr/OpenCAP/molcas_test/N2
  |              Molcas: /home/qcsoftware/OpenMolCas_james/qcmaquis_build
  |
  | Scratch area is NOT empty
  |
  |      MOLCAS_DRIVER = /home/qcsoftware/bin/pymolcas
  | MOLCAS_NEW_WORKDIR = YES
  |      MOLCAS_NPROCS = 16
  |      MOLCAS_SOURCE = /home/qcsoftware/OpenMolCas_james/Molcas_src
  |   MOLCAS_STRUCTURE = 0
  |
   ----------------------------------------------------------------------

++ ---------   Input file   ---------

&GATEWAY
Expert
Basis set
 N.aug-cc-pvtz
 N1  0.0  0.0  1.039
 N2  0.0  0.0  -1.039
End of Basis
Basis set
X ..... / inline
   0.00   2
    3    3
               0.0288
               0.0144
               0.0072
      1.00000000             0.00000000             0.00000000
      0.00000000             1.00000000             0.00000000
      0.00000000             0.00000000             1.00000000
     3    3
               0.02455
               0.012275
               0.0061375
     1.00000000             0.00000000             0.00000000
     0.00000000             1.00000000             0.00000000
     0.00000000             0.00000000             1.00000000
     3    3
               0.0755
               0.03775
               0.018875
      1.000000E+00           0.000000E+00           0.000000E+00           0.00000000
      0.000000E+00           1.000000E+00           0.000000E+00           0.00000000
      0.000000E+00           0.000000E+00           1.000000E+00           0.00000000
X1  0.000  0.000  0.000
End of basis

&SEWARD

>>> COPY /home/gayverjr/OpenCAP/molcas_test/N2/N2orbs.MP2Orb INPORB

&RASSCF
LUMORB
Title = cas 5,13 test
Charge = 0
Ras2=4
TDM
NActEl=4,0,0
CIROOT= 10 10 1

&CASPT2
Multistate = all

&RASSI
TRD1
Heff
EJOB

-- ----------------------------------

--- Start Module: gateway at Tue Apr 28 19:22:18 2020 ---

()()()()()()()()()()()()()()()()()()()()()()()()()()()()()()()()()()()()()()()()()()()()()()()()()()

                                              &GATEWAY

                                   only a single process is used
                       available to each process: 20 GB of memory, 16 threads
()()()()()()()()()()()()()()()()()()()()()()()()()()()()()()()()()()()()()()()()()()()()()()()()()()

 ###############################################################################
 ###############################################################################
 ###                                                                         ###
 ###                                                                         ###
 ###    WARNING:  EXPERT option is ON!                                       ###
 ###                                                                         ###
 ###                                                                         ###
 ###############################################################################
 ###############################################################################

++    Symmetry information:
      ---------------------

                    Character Table for C1 

                             E  
                    a        1  x, y, xy, Rz, z, xz, Ry, yz, Rx, I
--


++    Basis set information:
      ----------------------


      Basis set label: N.AUG-CC-PVTZ.........

      Electronic valence basis set:
      ------------------
      Associated Effective Charge   7.000000 au
      Associated Actual Charge      7.000000 au
      Nuclear Model: Point charge

      Shell  nPrim  nBasis  Cartesian Spherical Contaminant
         s      11       5        X                  
         p       6       4        X                  
         d       3       3                 X         
         f       2       2                 X         


      Basis set label: X...............................................................................

      Electronic valence basis set:
      ------------------
      Associated Effective Charge   0.000000 au
      Associated Actual Charge      0.000000 au
      Nuclear Model: Point charge

      Shell  nPrim  nBasis  Cartesian Spherical Contaminant
         s       3       3        X                  
         p       3       3        X                  
         d       3       3                 X         
--


++    Molecular structure info:
      -------------------------

                    ************************************************ 
                    **** Cartesian Coordinates / Bohr, Angstrom **** 
                    ************************************************ 

     Center  Label                x              y              z                     x              y              z
        1      N1               0.000000       0.000000       1.039000              0.000000       0.000000       0.549815
        2      N2               0.000000       0.000000      -1.039000              0.000000       0.000000      -0.549815
        3      X1               0.000000       0.000000       0.000000              0.000000       0.000000       0.000000

                    *************************************** 
                    *    InterNuclear Distances / Bohr    * 
                    *************************************** 

               1 N1            2 N2            3 X1    
    1 N1       0.000000
    2 N2       2.078000        0.000000
    3 X1       1.039000        1.039000        0.000000

                    ******************************************* 
                    *    InterNuclear Distances / Angstrom    * 
                    ******************************************* 

               1 N1            2 N2            3 X1    
    1 N1       0.000000
    2 N2       1.099630        0.000000
    3 X1       0.549815        0.549815        0.000000

                    ************************************** 
                    *    Valence Bond Angles / Degree    * 
                    ************************************** 
                          Atom centers                 Phi
                      2 N2       1 N1       3 X1         0.00
                      1 N1       2 N2       3 X1         0.00
                      1 N1       3 X1       2 N2       180.00
--


            Nuclear Potential Energy             23.58036574 au

--- Stop Module: gateway at Tue Apr 28 19:22:20 2020 /rc=_RC_ALL_IS_WELL_ ---
*** files: xmldump
    saved to directory /home/gayverjr/OpenCAP/molcas_test/N2
--- Module gateway spent 1 second ---

--- Start Module: seward at Tue Apr 28 19:22:20 2020 ---

()()()()()()()()()()()()()()()()()()()()()()()()()()()()()()()()()()()()()()()()()()()()()()()()()()

                                              &SEWARD

                                   only a single process is used
                       available to each process: 20 GB of memory, 16 threads
()()()()()()()()()()()()()()()()()()()()()()()()()()()()()()()()()()()()()()()()()()()()()()()()()()

               SEWARD will generate:
                  Multipole Moment integrals up to order  2
                  Kinetic Energy integrals
                  Nuclear Attraction integrals (point charge)
                  One-Electron Hamiltonian integrals
                  Velocity integrals
                  Orbital angular momentum around ( 0.0000  0.0000  0.0000 )
                  Velocity quadrupole around ( 0.0000  0.0000  0.0000 )
                  Two-Electron Repulsion integrals

                   Integrals are discarded if absolute value <: 0.10E-13
                   Integral cutoff threshold is set to       <: 0.10E-15

            Nuclear Potential Energy             23.58036574 au


      Basis set specifications :
      Symmetry species         a  
      Basis functions          119


  Input file to MOLDEN was generated!

--- Stop Module: seward at Tue Apr 28 19:22:24 2020 /rc=_RC_ALL_IS_WELL_ ---
*** files: gs.GssOrb gs.guessorb.h5 gs.guessorb.molden xmldump
    saved to directory /home/gayverjr/OpenCAP/molcas_test/N2
--- Module seward spent 4 seconds ---

>>> COPY /home/gayverjr/OpenCAP/molcas_test/N2/N2orbs.MP2Orb INPORB

--- Start Module: rasscf at Tue Apr 28 19:22:24 2020 ---

()()()()()()()()()()()()()()()()()()()()()()()()()()()()()()()()()()()()()()()()()()()()()()()()()()

                                              &RASSCF

                                   only a single process is used
                       available to each process: 20 GB of memory, 16 threads
()()()()()()()()()()()()()()()()()()()()()()()()()()()()()()()()()()()()()()()()()()()()()()()()()()

 ###############################################################################
 ###############################################################################
 ###                                                                         ###
 ###                                                                         ###
 ###    WARNING: Had to guess the spin.                                      ###
 ###                                                                         ###
 ###                                                                         ###
 ###############################################################################
 ###############################################################################
  Warning: no input and no reliable source
  for the spin multiplicity.
  Guess ISPIN=                    1

      Header of the ONEINT file:
      --------------------------
      
      Integrals generated by seward 4.2.0  , Tue Apr 28 19:22:20 2020


      OrdInt status: non-squared


      Cartesian coordinates in Angstrom:
      -----------------------------------------------------
      No.  Label        X            Y            Z        
      -----------------------------------------------------
       1   N1         0.00000000   0.00000000   0.54981512
       2   N2         0.00000000   0.00000000  -0.54981512
       3   X1         0.00000000   0.00000000   0.00000000
      -----------------------------------------------------
      Nuclear repulsion energy =   23.58036574

++    Wave function specifications:
      -----------------------------

      Number of closed shell electrons          10
      Number of electrons in active shells       4
      Max number of holes in RAS1 space          0
      Max nr of electrons in RAS3 space          0
      Number of inactive orbitals                5
      Number of active orbitals                  4
      Number of secondary orbitals             110
      Spin quantum number                      0.0
      State symmetry                             1
--

++    Orbital specifications:
      -----------------------

      Symmetry species                           1
                                                 a
      Frozen orbitals                            0
      Inactive orbitals                          5
      Active orbitals                            4
      RAS1 orbitals                              0
      RAS2 orbitals                              4
      RAS3 orbitals                              0
      Secondary orbitals                       110
      Deleted orbitals                           0
      Number of basis functions                119
--

++    CI expansion specifications:
      ----------------------------

      Number of CSFs                            20
      Number of determinants                    21
      Number of root(s) required                10
      Root chosen for geometry opt.             10
      CI roots used                              1     2     3     4     5     6     7     8     9    10
      weights                                0.100 0.100 0.100 0.100 0.100 0.100 0.100 0.100 0.100 0.100
      highest root included in the CI           10
      max. size of the explicit Hamiltonian     20
--

++    Optimization specifications:
      ----------------------------

      RASSCF algorithm: Conventional
      Maximum number of macro iterations       200
      Maximum number of SX iterations          100
      Threshold for RASSCF energy            0.100E-07
      Threshold for max MO rotation          0.100E+00
      Threshold for max BLB element          0.100E-03
      Level shift parameter                  0.500E+00
      Make Quasi-Newton update
--

      The MO-coefficients are taken from the file:
      INPORB                                                                                                                          
      Title:  Natural MP2 orbitals                                                         

      Total molecular charge    0.00

      ************************************************************************************************************************
      *                                                                                                                      *
      *                                            Wave function control section                                             *
      *                                                                                                                      *
      ************************************************************************************************************************


                                         RASSCF iterations: Energy and convergence statistics
                                         ----------------------------------------------------

      Iter CI   SX   CI       RASSCF       Energy    max ROT     max BLB   max BLB  Level Ln srch  Step   QN   Walltime
          iter iter root      energy       change     param      element    value   shift minimum  type update hh:mm:ss
 Nr of preliminary CI iterations:   1
        1   1   18    0  -108.41985444    0.00E+00  -0.99E-01    9  27 1 -0.16E+00*  0.47   0.00    SX    NO    0:00:05
        2   1   18    0  -108.49724190   -0.77E-01* -0.37E-01    5  13 1  0.43E-01*  0.37   0.00    SX    NO    0:00:02
        3   1   18    0  -108.50963668   -0.12E-01* -0.16E-01    5  13 1  0.19E-01*  0.35   0.00    SX    NO    0:00:03
        4   1   18    0  -108.51246092   -0.28E-02* -0.81E-02    5  13 1  0.10E-01*  0.35   0.00    SX    NO    0:00:02
        5   1   16    0  -108.51321434   -0.75E-03* -0.88E-02    5  13 1  0.52E-02*  0.35   2.15    LS   YES    0:00:03
        6   1   14    0  -108.51351358   -0.30E-03*  0.17E-02    5  11 1  0.19E-02*  0.34   1.05    QN   YES    0:00:02
        7   1   13    0  -108.51353045   -0.17E-04*  0.12E-02    5  11 1  0.74E-03*  0.34   1.68    LS   YES    0:00:02
        8   1   13    0  -108.51353372   -0.33E-05*  0.29E-03    4  12 1 -0.40E-03*  0.34   1.01    QN   YES    0:00:03
        9   1   10    0  -108.51353445   -0.73E-06*  0.17E-03    4  12 1 -0.81E-04   0.34   1.24    QN   YES    0:00:02
       10   1    9    0  -108.51353452   -0.71E-07*  0.69E-04    3  13 1  0.21E-04   0.34   1.21    QN   YES    0:00:03
       11   1    7    0  -108.51353453   -0.63E-08   0.19E-04    3  11 1 -0.72E-05   0.34   1.20    QN   YES    0:00:02
      Convergence after 11 iterations
       12   1    7    0  -108.51353453   -0.47E-09   0.19E-04    5 119 1  0.22E-05   0.34   1.20    QN   YES    0:00:02

      ************************************************************************************************************************
                                                      Wave function printout:
                       occupation of active orbitals, and spin coupling of open shells (u,d: Spin up or down)
      ************************************************************************************************************************

      Note: transformation to natural orbitals
      has been made, which may change the order of the CSFs.

      printout of CI-coefficients larger than  0.05 for root  1
      energy=    -109.055932
      conf/sym  1111     Coeff  Weight
             1  2200  -0.96790 0.93683
             6  2020   0.13322 0.01775
            10  udud  -0.11191 0.01252
            14  0202   0.13322 0.01775
            15  uudd  -0.09978 0.00996

      printout of CI-coefficients larger than  0.05 for root  2
      energy=    -108.689824
      conf/sym  1111     Coeff  Weight
             2  2ud0  -0.10554 0.01114
             3  2u0d   0.69368 0.48119
             4  u2d0   0.69368 0.48119
             5  u20d   0.10554 0.01114
            17  u0d2   0.08661 0.00750
            18  0u2d   0.08661 0.00750

      printout of CI-coefficients larger than  0.05 for root  3
      energy=    -108.661733
      conf/sym  1111     Coeff  Weight
             2  2ud0  -0.38114 0.14527
             3  2u0d   0.59213 0.35062
             4  u2d0  -0.59213 0.35062
             5  u20d  -0.38114 0.14527
            17  u0d2   0.05393 0.00291
            18  0u2d  -0.05393 0.00291

      printout of CI-coefficients larger than  0.05 for root  4
      energy=    -108.661733
      conf/sym  1111     Coeff  Weight
             2  2ud0   0.59213 0.35062
             3  2u0d   0.38114 0.14527
             4  u2d0  -0.38114 0.14527
             5  u20d   0.59213 0.35062
            16  u02d   0.05393 0.00291
            19  0ud2   0.05393 0.00291

      printout of CI-coefficients larger than  0.05 for root  5
      energy=    -108.433895
      conf/sym  1111     Coeff  Weight
             1  2200  -0.08710 0.00759
             6  2020  -0.34485 0.11892
             7  20ud  -0.10427 0.01087
             8  2002   0.12851 0.01652
             9  ud20  -0.10427 0.01087
            10  udud   0.47336 0.22407
            11  ud02   0.10427 0.01087
            12  0220   0.12851 0.01652
            13  02ud   0.10427 0.01087
            14  0202  -0.34485 0.11892
            15  uudd  -0.67256 0.45233

      printout of CI-coefficients larger than  0.05 for root  6
      energy=    -108.365874
      conf/sym  1111     Coeff  Weight
             6  2020   0.10998 0.01210
             7  20ud  -0.47519 0.22581
             8  2002  -0.10998 0.01210
             9  ud20   0.47519 0.22581
            10  udud   0.21997 0.04839
            11  ud02  -0.47519 0.22581
            12  0220  -0.10998 0.01210
            13  02ud   0.47519 0.22581
            14  0202   0.10998 0.01210

      printout of CI-coefficients larger than  0.05 for root  7
      energy=    -108.365874
      conf/sym  1111     Coeff  Weight
             6  2020   0.33601 0.11290
             7  20ud   0.15554 0.02419
             8  2002  -0.33601 0.11290
             9  ud20  -0.15554 0.02419
            10  udud   0.67202 0.45161
            11  ud02   0.15554 0.02419
            12  0220  -0.33601 0.11290
            13  02ud  -0.15554 0.02419
            14  0202   0.33601 0.11290

      printout of CI-coefficients larger than  0.05 for root  8
      energy=    -108.347255
      conf/sym  1111     Coeff  Weight
             2  2ud0  -0.65259 0.42587
             3  2u0d  -0.09929 0.00986
             4  u2d0  -0.09929 0.00986
             5  u20d   0.65259 0.42587
            16  u02d  -0.25063 0.06281
            19  0ud2   0.25063 0.06281

      printout of CI-coefficients larger than  0.05 for root  9
      energy=    -108.276613
      conf/sym  1111     Coeff  Weight
             6  2020  -0.10377 0.01077
             7  20ud   0.46964 0.22056
             8  2002   0.06309 0.00398
             9  ud20   0.51448 0.26469
            11  ud02   0.51448 0.26469
            12  0220  -0.06309 0.00398
            13  02ud   0.46964 0.22056
            14  0202   0.10377 0.01077

      printout of CI-coefficients larger than  0.05 for root 10
      energy=    -108.276613
      conf/sym  1111     Coeff  Weight
             7  20ud   0.11799 0.01392
             8  2002  -0.69588 0.48425
            12  0220   0.69588 0.48425
            13  02ud   0.11799 0.01392

      Natural orbitals and occupation numbers for root  1
      sym 1:   1.934967   1.934967   0.065033   0.065033

      Natural orbitals and occupation numbers for root  2
      sym 1:   1.484649   1.484649   0.515351   0.515351

      Natural orbitals and occupation numbers for root  3
      sym 1:   1.491772   1.491772   0.508228   0.508228

      Natural orbitals and occupation numbers for root  4
      sym 1:   1.491772   1.491772   0.508228   0.508228

      Natural orbitals and occupation numbers for root  5
      sym 1:   1.005945   1.005945   0.994055   0.994055

      Natural orbitals and occupation numbers for root  6
      sym 1:   1.000000   1.000000   1.000000   1.000000

      Natural orbitals and occupation numbers for root  7
      sym 1:   1.000000   1.000000   1.000000   1.000000

      Natural orbitals and occupation numbers for root  8
      sym 1:   1.371463   1.371463   0.628537   0.628537

      Natural orbitals and occupation numbers for root  9
      sym 1:   1.000000   1.000000   1.000000   1.000000

      Natural orbitals and occupation numbers for root 10
      sym 1:   1.000000   1.000000   1.000000   1.000000

      ************************************************************************************************************************
      *                                                                                                                      *
      *                                                    Final results                                                     *
      *                                                                                                                      *
      ************************************************************************************************************************


++    Wave function specifications:
      -----------------------------

      Number of closed shell electrons          10
      Number of electrons in active shells       4
      Max number of holes in RAS1 space          0
      Max nr of electrons in RAS3 space          0
      Number of inactive orbitals                5
      Number of active orbitals                  4
      Number of secondary orbitals             110
      Spin quantum number                      0.0
      State symmetry                             1
--

++    Orbital specifications:
      -----------------------

      Symmetry species                           1
                                                 a
      Frozen orbitals                            0
      Inactive orbitals                          5
      Active orbitals                            4
      RAS1 orbitals                              0
      RAS2 orbitals                              4
      RAS3 orbitals                              0
      Secondary orbitals                       110
      Deleted orbitals                           0
      Number of basis functions                119
--

++    CI expansion specifications:
      ----------------------------

      Number of CSFs                            20
      Number of determinants                    21
      Number of root(s) required                10
      CI roots used                              1     2     3     4     5     6     7     8     9    10
      weights                                0.100 0.100 0.100 0.100 0.100 0.100 0.100 0.100 0.100 0.100
      highest root included in the CI           10
      Root passed to geometry opt.              10
--

++    Final optimization conditions:
      ------------------------------

      Average CI energy                            -108.51353453
      RASSCF energy for state 10                   -108.27661316
      Super-CI energy                                -0.00000000
      RASSCF energy change                           -0.00000000
      Max change in MO coefficients              -0.182E-03
      Max non-diagonal density matrix element     0.190E-04
      Maximum BLB matrix element                  0.220E-05
      (orbital pair   5, 119 in symmetry   1)
      Norm of electronic gradient            0.118E+00
--


      Final state energy(ies):
      ------------------------

::    RASSCF root number  1 Total energy:   -109.05593182
::    RASSCF root number  2 Total energy:   -108.68982354
::    RASSCF root number  3 Total energy:   -108.66173261
::    RASSCF root number  4 Total energy:   -108.66173261
::    RASSCF root number  5 Total energy:   -108.43389493
::    RASSCF root number  6 Total energy:   -108.36587408
::    RASSCF root number  7 Total energy:   -108.36587408
::    RASSCF root number  8 Total energy:   -108.34725531
::    RASSCF root number  9 Total energy:   -108.27661316
::    RASSCF root number 10 Total energy:   -108.27661316

++    Molecular orbitals:
      -------------------

      Pseudonatural active orbitals and approximate occupation numbers




      Molecular orbitals for symmetry species 1: a  


      Orbital                 1         2         3         4         5         6         7         8         9        10
      Energy           -15.6758  -15.6730   -1.5009   -0.7873   -0.6318    0.0000    0.0000    0.0000    0.0000    0.0090
      Occ. No.           2.0000    2.0000    2.0000    2.0000    2.0000    1.2781    1.2781    0.7219    0.7219    0.0000

     1 N1     1s         0.7069   -0.7061   -0.0174   -0.0047   -0.0051    0.0000    0.0000   -0.0000   -0.0000   -0.0007
     2 N1     1s         0.0017    0.0022    0.6286   -0.6661   -0.2575    0.0000    0.0000   -0.0000   -0.0000   -0.0239
     3 N1     1s         0.0016   -0.0012   -0.0050    0.0022    0.0007   -0.0000   -0.0000    0.0000    0.0000    0.0002
     4 N1     1s         0.0009   -0.0154   -0.1322   -0.2622   -0.1645   -0.0000   -0.0000    0.0000    0.0000   -0.0026
     5 N1     1s         0.0019   -0.0042    0.0105   -0.0868   -0.1027    0.0000    0.0000    0.0000    0.0000   -1.0206
     6 N1     2px        0.0000   -0.0000   -0.0000    0.0000   -0.0000    0.5920    0.2695   -0.2048   -0.7228    0.0000
     7 N1     2px       -0.0000    0.0000    0.0000   -0.0000   -0.0000   -0.0094   -0.0043   -0.0025   -0.0087    0.0000
     8 N1     2px       -0.0000    0.0000   -0.0000   -0.0000    0.0000   -0.0501   -0.0228   -0.0594   -0.2095   -0.0000
     9 N1     2px       -0.0000    0.0000    0.0000    0.0000   -0.0000   -0.0081   -0.0037   -0.1227   -0.4330    0.0000
    10 N1     2py        0.0000   -0.0000   -0.0000    0.0000   -0.0000   -0.2695    0.5920   -0.7228    0.2048    0.0000
    11 N1     2py       -0.0000    0.0000    0.0000   -0.0000   -0.0000    0.0043   -0.0094   -0.0087    0.0025    0.0000
    12 N1     2py       -0.0000    0.0000   -0.0000   -0.0000    0.0000    0.0228   -0.0501   -0.2095    0.0594   -0.0000
    13 N1     2py       -0.0000    0.0000    0.0000    0.0000   -0.0000    0.0037   -0.0081   -0.4330    0.1227    0.0000
    14 N1     2pz       -0.0073    0.0051   -0.3615   -0.3023   -0.6820   -0.0000   -0.0000   -0.0000   -0.0000   -0.0235
    15 N1     2pz        0.0041   -0.0029    0.0359    0.0268    0.0449    0.0000    0.0000    0.0000    0.0000    0.0022
    16 N1     2pz        0.0047    0.0049    0.1365    0.1300    0.0799    0.0000    0.0000   -0.0000   -0.0000   -0.0083
    17 N1     2pz        0.0074    0.0010    0.0658    0.0137   -0.1338    0.0000    0.0000   -0.0000   -0.0000   -1.0473
    18 N1     3d2-      -0.0000    0.0000    0.0000   -0.0000   -0.0000    0.0000    0.0000   -0.0000   -0.0000    0.0000
    19 N1     3d2-       0.0000   -0.0000   -0.0000   -0.0000    0.0000   -0.0000   -0.0000    0.0000    0.0000    0.0000
    20 N1     3d2-      -0.0000    0.0000   -0.0000    0.0000    0.0000   -0.0000   -0.0000    0.0000    0.0000    0.0000
    21 N1     3d1-      -0.0000    0.0000   -0.0000   -0.0000   -0.0000    0.0086   -0.0188   -0.0061    0.0017   -0.0000
    22 N1     3d1-      -0.0000   -0.0000    0.0000    0.0000    0.0000    0.0148   -0.0324   -0.0109    0.0031   -0.0000
    23 N1     3d1-      -0.0000   -0.0000    0.0000    0.0000   -0.0000    0.0006   -0.0012    0.0253   -0.0072    0.0000
    24 N1     3d0        0.0007   -0.0007    0.0231    0.0056    0.0214    0.0000    0.0000   -0.0000   -0.0000    0.0001
    25 N1     3d0       -0.0014   -0.0003    0.0213    0.0083    0.0247   -0.0000   -0.0000   -0.0000   -0.0000    0.0012
    26 N1     3d0       -0.0004   -0.0010   -0.0257   -0.0121   -0.0020   -0.0000   -0.0000    0.0000    0.0000   -0.0209
    27 N1     3d1+      -0.0000    0.0000   -0.0000   -0.0000   -0.0000   -0.0188   -0.0086   -0.0017   -0.0061   -0.0000
    28 N1     3d1+      -0.0000   -0.0000    0.0000    0.0000    0.0000   -0.0324   -0.0148   -0.0031   -0.0109   -0.0000
    29 N1     3d1+      -0.0000   -0.0000    0.0000    0.0000   -0.0000   -0.0012   -0.0006    0.0072    0.0253    0.0000
    30 N1     3d2+       0.0000    0.0000    0.0000   -0.0000   -0.0000    0.0000   -0.0000    0.0000   -0.0000    0.0000
    31 N1     3d2+      -0.0000   -0.0000   -0.0000   -0.0000   -0.0000   -0.0000    0.0000   -0.0000    0.0000   -0.0000
    32 N1     3d2+       0.0000   -0.0000    0.0000    0.0000    0.0000   -0.0000    0.0000   -0.0000    0.0000    0.0000
    33 N1     4f3-      -0.0000   -0.0000    0.0000   -0.0000   -0.0000    0.0000    0.0000   -0.0000   -0.0000   -0.0000
    34 N1     4f3-      -0.0000   -0.0000    0.0000    0.0000    0.0000   -0.0000   -0.0000   -0.0000    0.0000    0.0000
    35 N1     4f2-       0.0000   -0.0000   -0.0000    0.0000    0.0000   -0.0000   -0.0000    0.0000    0.0000   -0.0000
    36 N1     4f2-      -0.0000   -0.0000    0.0000    0.0000   -0.0000    0.0000    0.0000   -0.0000   -0.0000   -0.0000
    37 N1     4f1-      -0.0000    0.0000    0.0000   -0.0000    0.0000   -0.0036    0.0079    0.0036   -0.0010    0.0000
    38 N1     4f1-       0.0000    0.0000   -0.0000   -0.0000    0.0000   -0.0004    0.0009    0.0038   -0.0011    0.0000
    39 N1     4f0        0.0002    0.0005   -0.0092    0.0001   -0.0065   -0.0000   -0.0000    0.0000    0.0000   -0.0005
    40 N1     4f0        0.0006   -0.0001    0.0031   -0.0011    0.0022    0.0000    0.0000   -0.0000   -0.0000    0.0018
    41 N1     4f1+      -0.0000    0.0000    0.0000   -0.0000    0.0000    0.0079    0.0036    0.0010    0.0036    0.0000
    42 N1     4f1+       0.0000    0.0000   -0.0000   -0.0000    0.0000    0.0009    0.0004    0.0011    0.0038    0.0000
    43 N1     4f2+       0.0000   -0.0000   -0.0000    0.0000    0.0000   -0.0000    0.0000   -0.0000    0.0000   -0.0000
    44 N1     4f2+       0.0000   -0.0000   -0.0000    0.0000   -0.0000    0.0000   -0.0000    0.0000   -0.0000    0.0000
    45 N1     4f3+       0.0000    0.0000   -0.0000    0.0000   -0.0000   -0.0000   -0.0000   -0.0000    0.0000    0.0000
    46 N1     4f3+      -0.0000    0.0000    0.0000   -0.0000    0.0000    0.0000    0.0000    0.0000   -0.0000    0.0000
    47 N2     1s         0.7069    0.7061   -0.0174    0.0047   -0.0051    0.0000    0.0000    0.0000    0.0000   -0.0007
    48 N2     1s         0.0017   -0.0022    0.6286    0.6661   -0.2575    0.0000    0.0000    0.0000    0.0000   -0.0239
    49 N2     1s         0.0016    0.0012   -0.0050   -0.0022    0.0007   -0.0000   -0.0000   -0.0000   -0.0000    0.0002
    50 N2     1s         0.0009    0.0154   -0.1322    0.2622   -0.1645   -0.0000   -0.0000   -0.0000   -0.0000   -0.0026
    51 N2     1s         0.0019    0.0042    0.0105    0.0868   -0.1027    0.0000    0.0000   -0.0000   -0.0000   -1.0206
    52 N2     2px        0.0000    0.0000   -0.0000   -0.0000   -0.0000    0.5920    0.2695    0.2048    0.7228    0.0000
    53 N2     2px       -0.0000   -0.0000    0.0000    0.0000   -0.0000   -0.0094   -0.0043    0.0025    0.0087    0.0000
    54 N2     2px       -0.0000   -0.0000   -0.0000    0.0000    0.0000   -0.0501   -0.0228    0.0594    0.2095   -0.0000
    55 N2     2px       -0.0000   -0.0000    0.0000   -0.0000   -0.0000   -0.0081   -0.0037    0.1227    0.4330    0.0000
    56 N2     2py        0.0000    0.0000   -0.0000   -0.0000   -0.0000   -0.2695    0.5920    0.7228   -0.2048    0.0000
    57 N2     2py       -0.0000   -0.0000    0.0000    0.0000   -0.0000    0.0043   -0.0094    0.0087   -0.0025    0.0000
    58 N2     2py       -0.0000   -0.0000   -0.0000    0.0000    0.0000    0.0228   -0.0501    0.2095   -0.0594   -0.0000
    59 N2     2py       -0.0000   -0.0000    0.0000   -0.0000   -0.0000    0.0037   -0.0081    0.4330   -0.1227    0.0000
    60 N2     2pz        0.0073    0.0051    0.3615   -0.3023    0.6820    0.0000    0.0000   -0.0000   -0.0000    0.0235
    61 N2     2pz       -0.0041   -0.0029   -0.0359    0.0268   -0.0449   -0.0000   -0.0000    0.0000    0.0000   -0.0022
    62 N2     2pz       -0.0047    0.0049   -0.1365    0.1300   -0.0799   -0.0000   -0.0000   -0.0000   -0.0000    0.0083
    63 N2     2pz       -0.0074    0.0010   -0.0658    0.0137    0.1338   -0.0000   -0.0000   -0.0000   -0.0000    1.0473
    64 N2     3d2-       0.0000   -0.0000   -0.0000    0.0000    0.0000    0.0000    0.0000    0.0000    0.0000   -0.0000
    65 N2     3d2-      -0.0000    0.0000    0.0000    0.0000   -0.0000   -0.0000   -0.0000   -0.0000   -0.0000   -0.0000
    66 N2     3d2-      -0.0000    0.0000    0.0000   -0.0000    0.0000   -0.0000   -0.0000   -0.0000   -0.0000   -0.0000
    67 N2     3d1-       0.0000    0.0000    0.0000   -0.0000    0.0000   -0.0086    0.0188   -0.0061    0.0017    0.0000
    68 N2     3d1-       0.0000   -0.0000   -0.0000    0.0000   -0.0000   -0.0148    0.0324   -0.0109    0.0031    0.0000
    69 N2     3d1-       0.0000   -0.0000   -0.0000    0.0000    0.0000   -0.0006    0.0012    0.0253   -0.0072   -0.0000
    70 N2     3d0        0.0007    0.0007    0.0231   -0.0056    0.0214    0.0000    0.0000    0.0000    0.0000    0.0001
    71 N2     3d0       -0.0014    0.0003    0.0213   -0.0083    0.0247   -0.0000   -0.0000    0.0000    0.0000    0.0012
    72 N2     3d0       -0.0004    0.0010   -0.0257    0.0121   -0.0020   -0.0000   -0.0000   -0.0000   -0.0000   -0.0209
    73 N2     3d1+       0.0000    0.0000    0.0000   -0.0000    0.0000    0.0188    0.0086   -0.0017   -0.0061    0.0000
    74 N2     3d1+       0.0000   -0.0000   -0.0000    0.0000   -0.0000    0.0324    0.0148   -0.0031   -0.0109    0.0000
    75 N2     3d1+       0.0000   -0.0000   -0.0000    0.0000    0.0000    0.0012    0.0006    0.0072    0.0253   -0.0000
    76 N2     3d2+      -0.0000   -0.0000   -0.0000    0.0000   -0.0000    0.0000   -0.0000   -0.0000    0.0000   -0.0000
    77 N2     3d2+       0.0000    0.0000    0.0000    0.0000    0.0000   -0.0000    0.0000    0.0000   -0.0000    0.0000
    78 N2     3d2+      -0.0000    0.0000    0.0000   -0.0000   -0.0000   -0.0000    0.0000    0.0000   -0.0000    0.0000
    79 N2     4f3-      -0.0000   -0.0000    0.0000    0.0000    0.0000   -0.0000   -0.0000    0.0000    0.0000    0.0000
    80 N2     4f3-       0.0000   -0.0000   -0.0000   -0.0000   -0.0000    0.0000    0.0000    0.0000   -0.0000   -0.0000
    81 N2     4f2-       0.0000   -0.0000   -0.0000    0.0000    0.0000    0.0000    0.0000    0.0000    0.0000   -0.0000
    82 N2     4f2-      -0.0000   -0.0000   -0.0000    0.0000   -0.0000   -0.0000   -0.0000   -0.0000   -0.0000    0.0000
    83 N2     4f1-      -0.0000   -0.0000    0.0000    0.0000    0.0000   -0.0036    0.0079   -0.0036    0.0010    0.0000
    84 N2     4f1-       0.0000   -0.0000   -0.0000    0.0000    0.0000   -0.0004    0.0009   -0.0038    0.0011    0.0000
    85 N2     4f0       -0.0002    0.0005    0.0092    0.0001    0.0065    0.0000    0.0000    0.0000    0.0000    0.0005
    86 N2     4f0       -0.0006   -0.0001   -0.0031   -0.0011   -0.0022   -0.0000   -0.0000   -0.0000   -0.0000   -0.0018
    87 N2     4f1+      -0.0000   -0.0000    0.0000    0.0000    0.0000    0.0079    0.0036   -0.0010   -0.0036    0.0000
    88 N2     4f1+       0.0000   -0.0000   -0.0000    0.0000    0.0000    0.0009    0.0004   -0.0011   -0.0038    0.0000
    89 N2     4f2+       0.0000   -0.0000   -0.0000    0.0000    0.0000    0.0000   -0.0000   -0.0000    0.0000   -0.0000
    90 N2     4f2+       0.0000   -0.0000    0.0000    0.0000   -0.0000   -0.0000    0.0000    0.0000   -0.0000    0.0000
    91 N2     4f3+       0.0000    0.0000   -0.0000   -0.0000    0.0000    0.0000    0.0000    0.0000   -0.0000   -0.0000
    92 N2     4f3+      -0.0000    0.0000   -0.0000   -0.0000   -0.0000   -0.0000   -0.0000   -0.0000    0.0000   -0.0000
    93 X1     1s        -0.0037   -0.0000   -0.0249   -0.0000    0.1280    0.0000    0.0000    0.0000    0.0000    2.7264
    94 X1     1s        -0.0002    0.0000   -0.0039    0.0000   -0.0259   -0.0000   -0.0000   -0.0000   -0.0000   -2.9886
    95 X1     1s         0.0002   -0.0000    0.0017   -0.0000    0.0049    0.0000    0.0000    0.0000    0.0000    2.6012
    96 X1     2px        0.0000    0.0000   -0.0000    0.0000    0.0000    0.0279    0.0127    0.0000   -0.0000   -0.0000
    97 X1     2px       -0.0000    0.0000    0.0000   -0.0000   -0.0000   -0.0176   -0.0080   -0.0000    0.0000    0.0000
    98 X1     2px        0.0000   -0.0000   -0.0000    0.0000    0.0000    0.0056    0.0026   -0.0000   -0.0000   -0.0000
    99 X1     2py        0.0000   -0.0000   -0.0000    0.0000    0.0000   -0.0127    0.0279   -0.0000   -0.0000   -0.0000
   100 X1     2py       -0.0000    0.0000    0.0000   -0.0000   -0.0000    0.0080   -0.0176   -0.0000    0.0000    0.0000
   101 X1     2py        0.0000    0.0000   -0.0000   -0.0000    0.0000   -0.0026    0.0056    0.0000   -0.0000   -0.0000
   102 X1     2pz        0.0000   -0.0003   -0.0000   -0.0072    0.0000   -0.0000   -0.0000    0.0000    0.0000   -0.0000
   103 X1     2pz       -0.0000    0.0001    0.0000    0.0039   -0.0000    0.0000    0.0000   -0.0000   -0.0000    0.0000
   104 X1     2pz        0.0000   -0.0000   -0.0000   -0.0012    0.0000   -0.0000   -0.0000    0.0000    0.0000    0.0000
   105 X1     3d2-       0.0000    0.0000    0.0000   -0.0000   -0.0000   -0.0000   -0.0000   -0.0000   -0.0000    0.0000
   106 X1     3d2-       0.0000   -0.0000    0.0000   -0.0000   -0.0000    0.0000    0.0000    0.0000    0.0000   -0.0000
   107 X1     3d2-      -0.0000    0.0000   -0.0000    0.0000    0.0000    0.0000   -0.0000   -0.0000   -0.0000    0.0000
   108 X1     3d1-      -0.0000    0.0000    0.0000   -0.0000    0.0000    0.0000    0.0000    0.0245   -0.0069   -0.0000
   109 X1     3d1-      -0.0000   -0.0000   -0.0000   -0.0000   -0.0000    0.0000   -0.0000    0.1157   -0.0328   -0.0000
   110 X1     3d1-      -0.0000    0.0000    0.0000    0.0000    0.0000   -0.0000    0.0000   -0.0140    0.0040    0.0000
   111 X1     3d0       -0.0023    0.0000    0.0050   -0.0000    0.0520   -0.0000   -0.0000    0.0000   -0.0000    0.2016
   112 X1     3d0       -0.0025   -0.0000   -0.0328   -0.0000    0.0385   -0.0000   -0.0000    0.0000   -0.0000    0.5137
   113 X1     3d0        0.0003    0.0000    0.0052    0.0000   -0.0018    0.0000    0.0000   -0.0000   -0.0000   -0.1323
   114 X1     3d1+       0.0000    0.0000   -0.0000   -0.0000   -0.0000   -0.0000   -0.0000    0.0069    0.0245   -0.0000
   115 X1     3d1+       0.0000   -0.0000   -0.0000   -0.0000   -0.0000   -0.0000   -0.0000    0.0328    0.1157   -0.0000
   116 X1     3d1+      -0.0000    0.0000    0.0000    0.0000    0.0000    0.0000    0.0000   -0.0040   -0.0140    0.0000
   117 X1     3d2+      -0.0000   -0.0000   -0.0000   -0.0000   -0.0000   -0.0000    0.0000    0.0000   -0.0000    0.0000
   118 X1     3d2+      -0.0000    0.0000    0.0000    0.0000    0.0000    0.0000   -0.0000   -0.0000   -0.0000   -0.0000
   119 X1     3d2+       0.0000   -0.0000   -0.0000   -0.0000   -0.0000   -0.0000    0.0000    0.0000    0.0000    0.0000


      Orbital                11        12        13        14        15        16        17        18        19        20
      Energy             0.0117    0.0117    0.0121    0.0406    0.0406    0.0413    0.0422    0.0507    0.0507    0.0511
      Occ. No.           0.0000    0.0000    0.0000    0.0000    0.0000    0.0000    0.0000    0.0000    0.0000    0.0000

     1 N1     1s         0.0000   -0.0000   -0.0006   -0.0000   -0.0000   -0.0008   -0.0003    0.0000    0.0000    0.0072
     2 N1     1s         0.0000   -0.0000   -0.0114   -0.0000   -0.0000   -0.0540    0.0315    0.0000    0.0000    0.0298
     3 N1     1s        -0.0000    0.0000    0.0001   -0.0000   -0.0000   -0.0013    0.0012   -0.0000   -0.0000    0.0034
     4 N1     1s        -0.0000    0.0000    0.0966   -0.0000   -0.0000   -0.0640    0.1698   -0.0000   -0.0000    0.3226
     5 N1     1s         0.0000   -0.0000    1.1643    0.0000    0.0000    2.7267    2.4656    0.0000    0.0000    4.0257
     6 N1     2px        0.0081   -0.0028   -0.0000    0.0360   -0.0001   -0.0000    0.0000   -0.0052    0.0306    0.0000
     7 N1     2px        0.0033   -0.0011   -0.0000   -0.0083    0.0000    0.0000    0.0000    0.0014   -0.0084   -0.0000
     8 N1     2px       -0.0117    0.0040   -0.0000    0.0368   -0.0001   -0.0000    0.0000    0.0603   -0.3560    0.0000
     9 N1     2px        0.0932   -0.0320   -0.0000   -0.2383    0.0009    0.0000    0.0000    1.4815   -8.7415   -0.0000
    10 N1     2py       -0.0028   -0.0081   -0.0000    0.0001    0.0360   -0.0000    0.0000    0.0306    0.0052    0.0000
    11 N1     2py       -0.0011   -0.0033   -0.0000   -0.0000   -0.0083    0.0000    0.0000   -0.0084   -0.0014   -0.0000
    12 N1     2py        0.0040    0.0117   -0.0000    0.0001    0.0368   -0.0000    0.0000   -0.3560   -0.0603    0.0000
    13 N1     2py       -0.0320   -0.0932   -0.0000   -0.0009   -0.2383    0.0000    0.0000   -8.7415   -1.4815   -0.0000
    14 N1     2pz        0.0000   -0.0000   -0.0030   -0.0000   -0.0000   -0.0515    0.0125    0.0000    0.0000   -0.0044
    15 N1     2pz       -0.0000    0.0000   -0.0028   -0.0000   -0.0000   -0.0006   -0.0034    0.0000    0.0000   -0.0184
    16 N1     2pz        0.0000   -0.0000   -0.0525    0.0000    0.0000    0.0162   -0.0694    0.0000    0.0000    0.1753
    17 N1     2pz        0.0000   -0.0000   -0.5146    0.0000    0.0000    2.8529   -1.1302   -0.0000   -0.0000    5.9441
    18 N1     3d2-      -0.0000    0.0000   -0.0000   -0.0000   -0.0000   -0.0000   -0.0000    0.0000    0.0000   -0.0000
    19 N1     3d2-       0.0000   -0.0000    0.0000    0.0000    0.0000    0.0000    0.0000   -0.0000   -0.0000   -0.0000
    20 N1     3d2-      -0.0000    0.0000    0.0000   -0.0000   -0.0000    0.0000   -0.0000   -0.0000   -0.0000   -0.0000
    21 N1     3d1-       0.0001    0.0004   -0.0000   -0.0000   -0.0013    0.0000    0.0000   -0.0013   -0.0002    0.0000
    22 N1     3d1-       0.0003    0.0008   -0.0000   -0.0000   -0.0037    0.0000   -0.0000    0.0339    0.0057    0.0000
    23 N1     3d1-       0.0005    0.0013    0.0000    0.0000    0.0066   -0.0000   -0.0000    0.1439    0.0244    0.0000
    24 N1     3d0       -0.0000    0.0000    0.0002    0.0000    0.0000    0.0013   -0.0004    0.0000    0.0000    0.0014
    25 N1     3d0       -0.0000    0.0000    0.0012   -0.0000   -0.0000   -0.0051   -0.0039   -0.0000   -0.0000   -0.0074
    26 N1     3d0        0.0000   -0.0000    0.0214    0.0000    0.0000    0.0537    0.0421    0.0000    0.0000   -0.1199
    27 N1     3d1+      -0.0004    0.0001   -0.0000   -0.0013    0.0000    0.0000    0.0000    0.0002   -0.0013    0.0000
    28 N1     3d1+      -0.0008    0.0003   -0.0000   -0.0037    0.0000    0.0000   -0.0000   -0.0057    0.0339    0.0000
    29 N1     3d1+      -0.0013    0.0005    0.0000    0.0066   -0.0000   -0.0000   -0.0000   -0.0244    0.1439    0.0000
    30 N1     3d2+      -0.0000   -0.0000   -0.0000   -0.0000    0.0000    0.0000   -0.0000   -0.0000    0.0000   -0.0000
    31 N1     3d2+       0.0000    0.0000    0.0000    0.0000   -0.0000   -0.0000    0.0000    0.0000   -0.0000    0.0000
    32 N1     3d2+      -0.0000   -0.0000   -0.0000   -0.0000    0.0000    0.0000   -0.0000    0.0000   -0.0000    0.0000
    33 N1     4f3-       0.0000    0.0000    0.0000    0.0000    0.0000   -0.0000    0.0000   -0.0000    0.0000   -0.0000
    34 N1     4f3-      -0.0000   -0.0000   -0.0000   -0.0000   -0.0000   -0.0000    0.0000    0.0000    0.0000    0.0000
    35 N1     4f2-       0.0000   -0.0000    0.0000    0.0000    0.0000    0.0000    0.0000    0.0000    0.0000   -0.0000
    36 N1     4f2-      -0.0000    0.0000   -0.0000   -0.0000   -0.0000   -0.0000    0.0000   -0.0000   -0.0000    0.0000
    37 N1     4f1-       0.0000    0.0000    0.0000    0.0000    0.0010   -0.0000   -0.0000   -0.0009   -0.0002    0.0000
    38 N1     4f1-      -0.0001   -0.0004    0.0000   -0.0000   -0.0015    0.0000    0.0000   -0.0220   -0.0037   -0.0000
    39 N1     4f0        0.0000   -0.0000    0.0001    0.0000    0.0000    0.0010    0.0008    0.0000    0.0000   -0.0002
    40 N1     4f0       -0.0000    0.0000   -0.0022   -0.0000   -0.0000   -0.0029   -0.0045   -0.0000   -0.0000    0.0129
    41 N1     4f1+      -0.0000    0.0000    0.0000    0.0010   -0.0000   -0.0000   -0.0000    0.0002   -0.0009    0.0000
    42 N1     4f1+       0.0004   -0.0001    0.0000   -0.0015    0.0000    0.0000    0.0000    0.0037   -0.0220   -0.0000
    43 N1     4f2+       0.0000    0.0000    0.0000    0.0000   -0.0000   -0.0000    0.0000   -0.0000    0.0000    0.0000
    44 N1     4f2+      -0.0000   -0.0000    0.0000   -0.0000    0.0000    0.0000   -0.0000    0.0000   -0.0000   -0.0000
    45 N1     4f3+       0.0000   -0.0000   -0.0000   -0.0000   -0.0000   -0.0000    0.0000   -0.0000    0.0000   -0.0000
    46 N1     4f3+      -0.0000    0.0000   -0.0000    0.0000    0.0000    0.0000   -0.0000    0.0000   -0.0000   -0.0000
    47 N2     1s         0.0000   -0.0000    0.0006   -0.0000   -0.0000   -0.0008    0.0003   -0.0000   -0.0000    0.0072
    48 N2     1s         0.0000   -0.0000    0.0114   -0.0000   -0.0000   -0.0540   -0.0315   -0.0000   -0.0000    0.0298
    49 N2     1s        -0.0000    0.0000   -0.0001   -0.0000   -0.0000   -0.0013   -0.0012    0.0000    0.0000    0.0034
    50 N2     1s        -0.0000    0.0000   -0.0966   -0.0000   -0.0000   -0.0640   -0.1698    0.0000    0.0000    0.3226
    51 N2     1s         0.0000   -0.0000   -1.1643    0.0000    0.0000    2.7267   -2.4656   -0.0000   -0.0000    4.0257
    52 N2     2px        0.0081   -0.0028    0.0000    0.0360   -0.0001   -0.0000   -0.0000    0.0052   -0.0306    0.0000
    53 N2     2px        0.0033   -0.0011    0.0000   -0.0083    0.0000    0.0000   -0.0000   -0.0014    0.0084   -0.0000
    54 N2     2px       -0.0117    0.0040    0.0000    0.0368   -0.0001   -0.0000   -0.0000   -0.0603    0.3560    0.0000
    55 N2     2px        0.0932   -0.0320    0.0000   -0.2383    0.0009    0.0000   -0.0000   -1.4815    8.7415   -0.0000
    56 N2     2py       -0.0028   -0.0081    0.0000    0.0001    0.0360   -0.0000   -0.0000   -0.0306   -0.0052    0.0000
    57 N2     2py       -0.0011   -0.0033    0.0000   -0.0000   -0.0083    0.0000   -0.0000    0.0084    0.0014   -0.0000
    58 N2     2py        0.0040    0.0117    0.0000    0.0001    0.0368   -0.0000   -0.0000    0.3560    0.0603    0.0000
    59 N2     2py       -0.0320   -0.0932    0.0000   -0.0009   -0.2383    0.0000   -0.0000    8.7415    1.4815   -0.0000
    60 N2     2pz       -0.0000    0.0000   -0.0030    0.0000    0.0000    0.0515    0.0125    0.0000    0.0000    0.0044
    61 N2     2pz        0.0000   -0.0000   -0.0028    0.0000    0.0000    0.0006   -0.0034    0.0000    0.0000    0.0184
    62 N2     2pz       -0.0000    0.0000   -0.0525   -0.0000   -0.0000   -0.0162   -0.0694    0.0000    0.0000   -0.1753
    63 N2     2pz       -0.0000    0.0000   -0.5146   -0.0000   -0.0000   -2.8529   -1.1302   -0.0000   -0.0000   -5.9441
    64 N2     3d2-      -0.0000    0.0000    0.0000   -0.0000   -0.0000   -0.0000   -0.0000   -0.0000   -0.0000   -0.0000
    65 N2     3d2-       0.0000   -0.0000    0.0000    0.0000    0.0000    0.0000    0.0000    0.0000    0.0000    0.0000
    66 N2     3d2-      -0.0000    0.0000    0.0000   -0.0000   -0.0000   -0.0000    0.0000    0.0000    0.0000    0.0000
    67 N2     3d1-      -0.0001   -0.0004   -0.0000    0.0000    0.0013   -0.0000    0.0000   -0.0013   -0.0002   -0.0000
    68 N2     3d1-      -0.0003   -0.0008   -0.0000    0.0000    0.0037   -0.0000   -0.0000    0.0339    0.0057   -0.0000
    69 N2     3d1-      -0.0005   -0.0013    0.0000   -0.0000   -0.0066    0.0000   -0.0000    0.1439    0.0244   -0.0000
    70 N2     3d0       -0.0000    0.0000   -0.0002    0.0000    0.0000    0.0013    0.0004   -0.0000   -0.0000    0.0014
    71 N2     3d0       -0.0000    0.0000   -0.0012   -0.0000   -0.0000   -0.0051    0.0039    0.0000    0.0000   -0.0074
    72 N2     3d0        0.0000   -0.0000   -0.0214    0.0000    0.0000    0.0537   -0.0421   -0.0000   -0.0000   -0.1199
    73 N2     3d1+       0.0004   -0.0001   -0.0000    0.0013   -0.0000   -0.0000    0.0000    0.0002   -0.0013   -0.0000
    74 N2     3d1+       0.0008   -0.0003   -0.0000    0.0037   -0.0000   -0.0000   -0.0000   -0.0057    0.0339   -0.0000
    75 N2     3d1+       0.0013   -0.0005    0.0000   -0.0066    0.0000    0.0000   -0.0000   -0.0244    0.1439   -0.0000
    76 N2     3d2+      -0.0000   -0.0000   -0.0000   -0.0000    0.0000    0.0000   -0.0000    0.0000   -0.0000    0.0000
    77 N2     3d2+       0.0000    0.0000   -0.0000    0.0000   -0.0000    0.0000   -0.0000   -0.0000    0.0000   -0.0000
    78 N2     3d2+      -0.0000   -0.0000    0.0000   -0.0000    0.0000    0.0000    0.0000   -0.0000    0.0000    0.0000
    79 N2     4f3-       0.0000    0.0000   -0.0000   -0.0000    0.0000   -0.0000    0.0000    0.0000   -0.0000   -0.0000
    80 N2     4f3-      -0.0000   -0.0000    0.0000    0.0000   -0.0000    0.0000    0.0000   -0.0000   -0.0000   -0.0000
    81 N2     4f2-      -0.0000    0.0000    0.0000   -0.0000   -0.0000    0.0000   -0.0000    0.0000    0.0000   -0.0000
    82 N2     4f2-       0.0000   -0.0000   -0.0000    0.0000    0.0000   -0.0000    0.0000   -0.0000   -0.0000    0.0000
    83 N2     4f1-       0.0000    0.0000   -0.0000    0.0000    0.0010   -0.0000    0.0000    0.0009    0.0002    0.0000
    84 N2     4f1-      -0.0001   -0.0004   -0.0000   -0.0000   -0.0015    0.0000   -0.0000    0.0220    0.0037   -0.0000
    85 N2     4f0       -0.0000    0.0000    0.0001   -0.0000   -0.0000   -0.0010    0.0008    0.0000    0.0000    0.0002
    86 N2     4f0        0.0000   -0.0000   -0.0022    0.0000    0.0000    0.0029   -0.0045   -0.0000   -0.0000   -0.0129
    87 N2     4f1+      -0.0000    0.0000   -0.0000    0.0010   -0.0000   -0.0000    0.0000   -0.0002    0.0009    0.0000
    88 N2     4f1+       0.0004   -0.0001   -0.0000   -0.0015    0.0000    0.0000   -0.0000   -0.0037    0.0220   -0.0000
    89 N2     4f2+      -0.0000   -0.0000   -0.0000   -0.0000    0.0000   -0.0000    0.0000   -0.0000    0.0000    0.0000
    90 N2     4f2+       0.0000    0.0000    0.0000    0.0000   -0.0000   -0.0000   -0.0000    0.0000   -0.0000   -0.0000
    91 N2     4f3+       0.0000   -0.0000   -0.0000   -0.0000    0.0000   -0.0000    0.0000   -0.0000   -0.0000   -0.0000
    92 N2     4f3+      -0.0000    0.0000   -0.0000    0.0000   -0.0000   -0.0000   -0.0000   -0.0000    0.0000    0.0000
    93 X1     1s        -0.0000    0.0000   -0.0000   -0.0000   -0.0000   -7.9624   -0.0000   -0.0000   -0.0000   -7.4392
    94 X1     1s         0.0000   -0.0000    0.0000    0.0000    0.0000    7.7871    0.0000    0.0000    0.0000    2.2120
    95 X1     1s        -0.0000    0.0000   -0.0000   -0.0000   -0.0000   -3.4706   -0.0000   -0.0000   -0.0000   -0.4425
    96 X1     2px       -0.5929    0.2036   -0.0000    1.6753   -0.0061   -0.0000   -0.0000   -0.0000    0.0000    0.0000
    97 X1     2px        1.2604   -0.4328    0.0000   -3.6106    0.0132    0.0000    0.0000    0.0000   -0.0000   -0.0000
    98 X1     2px       -1.6909    0.5806   -0.0000    1.9492   -0.0071   -0.0000   -0.0000   -0.0000    0.0000    0.0000
    99 X1     2py        0.2036    0.5929   -0.0000    0.0061    1.6753   -0.0000   -0.0000    0.0000    0.0000    0.0000
   100 X1     2py       -0.4328   -1.2604    0.0000   -0.0132   -3.6106    0.0000    0.0000   -0.0000   -0.0000   -0.0000
   101 X1     2py        0.5806    1.6909   -0.0000    0.0071    1.9492   -0.0000   -0.0000    0.0000    0.0000    0.0000
   102 X1     2pz       -0.0000    0.0000    1.0025    0.0000    0.0000    0.0000    2.5753    0.0000    0.0000    0.0000
   103 X1     2pz        0.0000   -0.0000   -1.5981   -0.0000   -0.0000    0.0000   -4.0952   -0.0000   -0.0000    0.0000
   104 X1     2pz       -0.0000    0.0000    1.8932    0.0000    0.0000   -0.0000    2.0467    0.0000    0.0000   -0.0000
   105 X1     3d2-       0.0000   -0.0000   -0.0000    0.0000    0.0000    0.0000   -0.0000   -0.0000   -0.0000   -0.0000
   106 X1     3d2-      -0.0000    0.0000   -0.0000   -0.0000   -0.0000   -0.0000    0.0000    0.0000    0.0000    0.0000
   107 X1     3d2-       0.0000   -0.0000    0.0000    0.0000    0.0000    0.0000   -0.0000   -0.0000   -0.0000   -0.0000
   108 X1     3d1-       0.0000    0.0000    0.0000    0.0000   -0.0000   -0.0000   -0.0000    0.8364    0.1418   -0.0000
   109 X1     3d1-       0.0000    0.0000    0.0000    0.0000   -0.0000   -0.0000   -0.0000    4.3664    0.7400   -0.0000
   110 X1     3d1-      -0.0000   -0.0000   -0.0000   -0.0000    0.0000    0.0000    0.0000   -2.1223   -0.3597    0.0000
   111 X1     3d0       -0.0000    0.0000   -0.0000   -0.0000   -0.0000   -0.5767   -0.0000   -0.0000   -0.0000   -0.6346
   112 X1     3d0       -0.0000    0.0000   -0.0000   -0.0000   -0.0000   -1.4409   -0.0000   -0.0000   -0.0000   -3.7701
   113 X1     3d0        0.0000   -0.0000    0.0000    0.0000    0.0000    0.2683    0.0000    0.0000    0.0000    2.0137
   114 X1     3d1+       0.0000   -0.0000    0.0000   -0.0000   -0.0000   -0.0000   -0.0000   -0.1418    0.8364   -0.0000
   115 X1     3d1+       0.0000   -0.0000    0.0000   -0.0000   -0.0000   -0.0000   -0.0000   -0.7400    4.3664   -0.0000
   116 X1     3d1+      -0.0000    0.0000   -0.0000    0.0000   -0.0000    0.0000    0.0000    0.3597   -2.1223    0.0000
   117 X1     3d2+       0.0000    0.0000   -0.0000    0.0000   -0.0000    0.0000   -0.0000    0.0000   -0.0000   -0.0000
   118 X1     3d2+      -0.0000   -0.0000    0.0000   -0.0000    0.0000   -0.0000    0.0000   -0.0000    0.0000    0.0000
   119 X1     3d2+       0.0000    0.0000   -0.0000    0.0000   -0.0000    0.0000   -0.0000    0.0000   -0.0000   -0.0000


      Orbital                21        22        23        24        25        26        27        28        29
      Energy             0.0533    0.0533    0.1044    0.1044    0.1050    0.1179    0.1403    0.1432    0.1432
      Occ. No.           0.0000    0.0000    0.0000    0.0000    0.0000    0.0000    0.0000    0.0000    0.0000

     1 N1     1s        -0.0000    0.0000   -0.0000   -0.0000    0.0033    0.0031   -0.0124   -0.0000   -0.0000
     2 N1     1s        -0.0000    0.0000    0.0000    0.0000    0.0837    0.1096   -0.0212   -0.0000   -0.0000
     3 N1     1s         0.0000    0.0000    0.0000    0.0000    0.0010   -0.0013   -0.0085    0.0000    0.0000
     4 N1     1s         0.0000    0.0000   -0.0000   -0.0000   -1.0839   -0.0390   -0.7420    0.0000    0.0000
     5 N1     1s         0.0000    0.0000    0.0000    0.0000   -9.7928    7.0257   -9.7238    0.0000    0.0000
     6 N1     2px       -0.0000   -0.0000    0.0001   -0.0699    0.0000    0.0000   -0.0000    0.0110   -0.0874
     7 N1     2px        0.0000    0.0000    0.0000   -0.0205    0.0000    0.0000    0.0000    0.0025   -0.0197
     8 N1     2px       -0.0000   -0.0000   -0.0001    0.0681   -0.0000   -0.0000   -0.0000    0.1051   -0.8324
     9 N1     2px        0.0000    0.0000    0.0006   -0.7051   -0.0000    0.0000    0.0000    2.7843  -22.0420
    10 N1     2py        0.0000   -0.0000   -0.0699   -0.0001    0.0000    0.0000   -0.0000   -0.0874   -0.0110
    11 N1     2py       -0.0000    0.0000   -0.0205   -0.0000    0.0000    0.0000    0.0000   -0.0197   -0.0025
    12 N1     2py        0.0000   -0.0000    0.0681    0.0001   -0.0000   -0.0000   -0.0000   -0.8324   -0.1051
    13 N1     2py       -0.0000    0.0000   -0.7051   -0.0006   -0.0000    0.0000    0.0000  -22.0420   -2.7843
    14 N1     2pz       -0.0000    0.0000    0.0000    0.0000    0.0213    0.0887   -0.0294    0.0000    0.0000
    15 N1     2pz        0.0000   -0.0000   -0.0000   -0.0000    0.0356   -0.0093    0.0458   -0.0000   -0.0000
    16 N1     2pz        0.0000   -0.0000   -0.0000   -0.0000    0.6237    0.0459   -0.3895   -0.0000   -0.0000
    17 N1     2pz        0.0000    0.0000    0.0000    0.0000    4.1497    6.8661  -14.4443   -0.0000   -0.0000
    18 N1     3d2-      -0.0000   -0.0012   -0.0000   -0.0000   -0.0000   -0.0000   -0.0000   -0.0000   -0.0000
    19 N1     3d2-       0.0001    0.0118    0.0000    0.0000   -0.0000    0.0000    0.0000    0.0000    0.0000
    20 N1     3d2-      -0.0007   -0.0679   -0.0000   -0.0000   -0.0000   -0.0000   -0.0000   -0.0000   -0.0000
    21 N1     3d1-      -0.0000    0.0000    0.0030    0.0000    0.0000   -0.0000    0.0000   -0.0041   -0.0005
    22 N1     3d1-      -0.0000    0.0000    0.0074    0.0000    0.0000   -0.0000    0.0000    0.0740    0.0093
    23 N1     3d1-       0.0000   -0.0000    0.0062    0.0000    0.0000   -0.0000    0.0000    0.2656    0.0335
    24 N1     3d0        0.0000   -0.0000    0.0000    0.0000   -0.0019    0.0013    0.0008   -0.0000   -0.0000
    25 N1     3d0        0.0000   -0.0000    0.0000    0.0000   -0.0232   -0.0054    0.0311    0.0000    0.0000
    26 N1     3d0       -0.0000    0.0000    0.0000    0.0000   -0.1895    0.1615    0.2474    0.0000    0.0000
    27 N1     3d1+       0.0000    0.0000   -0.0000    0.0030    0.0000   -0.0000    0.0000    0.0005   -0.0041
    28 N1     3d1+       0.0000    0.0000   -0.0000    0.0074    0.0000   -0.0000    0.0000   -0.0093    0.0740
    29 N1     3d1+      -0.0000   -0.0000   -0.0000    0.0062    0.0000   -0.0000    0.0000   -0.0335    0.2656
    30 N1     3d2+      -0.0012    0.0000    0.0000   -0.0000   -0.0000   -0.0000    0.0000    0.0000   -0.0000
    31 N1     3d2+       0.0118   -0.0001   -0.0000    0.0000    0.0000    0.0000   -0.0000   -0.0000    0.0000
    32 N1     3d2+      -0.0679    0.0007    0.0000   -0.0000   -0.0000   -0.0000   -0.0000    0.0000   -0.0000
    33 N1     4f3-       0.0000    0.0000    0.0000   -0.0000   -0.0000    0.0000   -0.0000   -0.0000   -0.0000
    34 N1     4f3-      -0.0000   -0.0000   -0.0000    0.0000    0.0000    0.0000    0.0000    0.0000    0.0000
    35 N1     4f2-       0.0000    0.0001    0.0000    0.0000   -0.0000   -0.0000    0.0000   -0.0000   -0.0000
    36 N1     4f2-       0.0000    0.0002    0.0000    0.0000   -0.0000    0.0000   -0.0000    0.0000    0.0000
    37 N1     4f1-       0.0000   -0.0000   -0.0004   -0.0000   -0.0000    0.0000   -0.0000   -0.0017   -0.0002
    38 N1     4f1-      -0.0000    0.0000   -0.0022   -0.0000   -0.0000    0.0000    0.0000   -0.0436   -0.0055
    39 N1     4f0        0.0000   -0.0000    0.0000    0.0000    0.0004    0.0029   -0.0006   -0.0000   -0.0000
    40 N1     4f0       -0.0000    0.0000   -0.0000   -0.0000    0.0154   -0.0132   -0.0307   -0.0000   -0.0000
    41 N1     4f1+      -0.0000   -0.0000    0.0000   -0.0004   -0.0000    0.0000   -0.0000    0.0002   -0.0017
    42 N1     4f1+       0.0000    0.0000    0.0000   -0.0022   -0.0000    0.0000    0.0000    0.0055   -0.0436
    43 N1     4f2+       0.0001   -0.0000   -0.0000    0.0000   -0.0000   -0.0000   -0.0000    0.0000   -0.0000
    44 N1     4f2+       0.0002   -0.0000   -0.0000    0.0000    0.0000    0.0000    0.0000   -0.0000    0.0000
    45 N1     4f3+       0.0000   -0.0000    0.0000   -0.0000    0.0000   -0.0000   -0.0000   -0.0000    0.0000
    46 N1     4f3+      -0.0000    0.0000   -0.0000    0.0000    0.0000   -0.0000   -0.0000    0.0000   -0.0000
    47 N2     1s        -0.0000   -0.0000   -0.0000   -0.0000   -0.0033    0.0031   -0.0124    0.0000    0.0000
    48 N2     1s         0.0000   -0.0000    0.0000    0.0000   -0.0837    0.1096   -0.0212    0.0000    0.0000
    49 N2     1s        -0.0000    0.0000    0.0000    0.0000   -0.0010   -0.0013   -0.0085   -0.0000   -0.0000
    50 N2     1s         0.0000   -0.0000   -0.0000   -0.0000    1.0839   -0.0390   -0.7420   -0.0000   -0.0000
    51 N2     1s         0.0000    0.0000    0.0000    0.0000    9.7928    7.0257   -9.7238   -0.0000   -0.0000
    52 N2     2px       -0.0000   -0.0000    0.0001   -0.0699   -0.0000    0.0000   -0.0000   -0.0110    0.0874
    53 N2     2px        0.0000    0.0000    0.0000   -0.0205   -0.0000    0.0000    0.0000   -0.0025    0.0197
    54 N2     2px       -0.0000   -0.0000   -0.0001    0.0681    0.0000   -0.0000   -0.0000   -0.1051    0.8324
    55 N2     2px        0.0000    0.0000    0.0006   -0.7051    0.0000    0.0000    0.0000   -2.7843   22.0420
    56 N2     2py        0.0000   -0.0000   -0.0699   -0.0001   -0.0000    0.0000   -0.0000    0.0874    0.0110
    57 N2     2py       -0.0000    0.0000   -0.0205   -0.0000   -0.0000    0.0000    0.0000    0.0197    0.0025
    58 N2     2py        0.0000   -0.0000    0.0681    0.0001    0.0000   -0.0000   -0.0000    0.8324    0.1051
    59 N2     2py       -0.0000    0.0000   -0.7051   -0.0006    0.0000    0.0000    0.0000   22.0420    2.7843
    60 N2     2pz       -0.0000    0.0000   -0.0000   -0.0000    0.0213   -0.0887    0.0294    0.0000    0.0000
    61 N2     2pz        0.0000   -0.0000    0.0000    0.0000    0.0356    0.0093   -0.0458   -0.0000   -0.0000
    62 N2     2pz       -0.0000   -0.0000    0.0000    0.0000    0.6237   -0.0459    0.3895   -0.0000   -0.0000
    63 N2     2pz       -0.0000   -0.0000   -0.0000   -0.0000    4.1497   -6.8661   14.4443   -0.0000   -0.0000
    64 N2     3d2-      -0.0000   -0.0012   -0.0000   -0.0000   -0.0000    0.0000    0.0000    0.0000    0.0000
    65 N2     3d2-       0.0001    0.0118    0.0000    0.0000   -0.0000    0.0000   -0.0000   -0.0000   -0.0000
    66 N2     3d2-      -0.0007   -0.0679   -0.0000   -0.0000   -0.0000    0.0000   -0.0000    0.0000    0.0000
    67 N2     3d1-       0.0000   -0.0000   -0.0030   -0.0000    0.0000    0.0000   -0.0000   -0.0041   -0.0005
    68 N2     3d1-       0.0000   -0.0000   -0.0074   -0.0000    0.0000    0.0000   -0.0000    0.0740    0.0093
    69 N2     3d1-      -0.0000    0.0000   -0.0062   -0.0000    0.0000    0.0000   -0.0000    0.2656    0.0335
    70 N2     3d0        0.0000    0.0000    0.0000    0.0000    0.0019    0.0013    0.0008    0.0000    0.0000
    71 N2     3d0       -0.0000    0.0000    0.0000    0.0000    0.0232   -0.0054    0.0311   -0.0000   -0.0000
    72 N2     3d0       -0.0000   -0.0000    0.0000    0.0000    0.1895    0.1615    0.2474   -0.0000   -0.0000
    73 N2     3d1+      -0.0000   -0.0000    0.0000   -0.0030    0.0000    0.0000   -0.0000    0.0005   -0.0041
    74 N2     3d1+      -0.0000   -0.0000    0.0000   -0.0074    0.0000    0.0000   -0.0000   -0.0093    0.0740
    75 N2     3d1+       0.0000    0.0000    0.0000   -0.0062    0.0000    0.0000   -0.0000   -0.0335    0.2656
    76 N2     3d2+      -0.0012    0.0000    0.0000   -0.0000    0.0000   -0.0000   -0.0000   -0.0000    0.0000
    77 N2     3d2+       0.0118   -0.0001   -0.0000    0.0000    0.0000   -0.0000    0.0000    0.0000   -0.0000
    78 N2     3d2+      -0.0679    0.0007    0.0000   -0.0000    0.0000    0.0000   -0.0000   -0.0000    0.0000
    79 N2     4f3-       0.0000    0.0000    0.0000    0.0000   -0.0000    0.0000    0.0000    0.0000    0.0000
    80 N2     4f3-      -0.0000   -0.0000   -0.0000   -0.0000    0.0000   -0.0000   -0.0000   -0.0000   -0.0000
    81 N2     4f2-      -0.0000   -0.0001   -0.0000   -0.0000   -0.0000   -0.0000    0.0000   -0.0000   -0.0000
    82 N2     4f2-      -0.0000   -0.0002   -0.0000   -0.0000   -0.0000    0.0000   -0.0000    0.0000    0.0000
    83 N2     4f1-       0.0000   -0.0000   -0.0004   -0.0000    0.0000    0.0000   -0.0000    0.0017    0.0002
    84 N2     4f1-      -0.0000    0.0000   -0.0022   -0.0000    0.0000    0.0000    0.0000    0.0436    0.0055
    85 N2     4f0       -0.0000    0.0000   -0.0000   -0.0000    0.0004   -0.0029    0.0006   -0.0000   -0.0000
    86 N2     4f0       -0.0000   -0.0000    0.0000    0.0000    0.0154    0.0132    0.0307   -0.0000   -0.0000
    87 N2     4f1+      -0.0000   -0.0000    0.0000   -0.0004    0.0000    0.0000   -0.0000   -0.0002    0.0017
    88 N2     4f1+       0.0000    0.0000    0.0000   -0.0022    0.0000    0.0000    0.0000   -0.0055    0.0436
    89 N2     4f2+      -0.0001    0.0000    0.0000   -0.0000   -0.0000    0.0000   -0.0000    0.0000   -0.0000
    90 N2     4f2+      -0.0002    0.0000    0.0000   -0.0000    0.0000    0.0000    0.0000   -0.0000    0.0000
    91 N2     4f3+       0.0000   -0.0000   -0.0000   -0.0000    0.0000   -0.0000   -0.0000    0.0000   -0.0000
    92 N2     4f3+      -0.0000    0.0000    0.0000    0.0000    0.0000    0.0000    0.0000   -0.0000    0.0000
    93 X1     1s        -0.0000   -0.0000   -0.0000   -0.0000    0.0000  -18.0903   16.6008   -0.0000   -0.0000
    94 X1     1s        -0.0000   -0.0000    0.0000    0.0000   -0.0000   10.0999   -3.7447    0.0000    0.0000
    95 X1     1s         0.0000    0.0000   -0.0000   -0.0000    0.0000   -2.9499    0.6243   -0.0000   -0.0000
    96 X1     2px       -0.0000   -0.0000   -0.0040    4.6013    0.0000   -0.0000   -0.0000   -0.0000    0.0000
    97 X1     2px        0.0000    0.0000    0.0037   -4.2895   -0.0000    0.0000    0.0000   -0.0000   -0.0000
    98 X1     2px       -0.0000   -0.0000   -0.0013    1.5111    0.0000   -0.0000   -0.0000    0.0000    0.0000
    99 X1     2py        0.0000   -0.0000    4.6013    0.0040    0.0000   -0.0000   -0.0000    0.0000    0.0000
   100 X1     2py       -0.0000    0.0000   -4.2895   -0.0037   -0.0000    0.0000    0.0000   -0.0000    0.0000
   101 X1     2py        0.0000   -0.0000    1.5111    0.0013    0.0000   -0.0000   -0.0000    0.0000   -0.0000
   102 X1     2pz        0.0000    0.0000    0.0000    0.0000   -7.1793    0.0000   -0.0000    0.0000    0.0000
   103 X1     2pz       -0.0000   -0.0000   -0.0000   -0.0000    5.1563    0.0000    0.0000   -0.0000   -0.0000
   104 X1     2pz        0.0000    0.0000    0.0000    0.0000   -1.6595   -0.0000   -0.0000    0.0000    0.0000
   105 X1     3d2-       0.0044    0.4285    0.0000    0.0000    0.0000    0.0000    0.0000   -0.0000   -0.0000
   106 X1     3d2-      -0.0100   -0.9657   -0.0000   -0.0000   -0.0000   -0.0000   -0.0000    0.0000    0.0000
   107 X1     3d2-       0.0161    1.5611    0.0000    0.0000    0.0000    0.0000    0.0000   -0.0000   -0.0000
   108 X1     3d1-      -0.0000    0.0000    0.0000   -0.0000    0.0000   -0.0000    0.0000    2.1957    0.2774
   109 X1     3d1-      -0.0000    0.0000    0.0000   -0.0000    0.0000   -0.0000    0.0000   10.4694    1.3225
   110 X1     3d1-       0.0000   -0.0000   -0.0000    0.0000   -0.0000    0.0000   -0.0000   -2.2678   -0.2865
   111 X1     3d0       -0.0000   -0.0000   -0.0000   -0.0000    0.0000   -1.3744    1.6931   -0.0000   -0.0000
   112 X1     3d0       -0.0000   -0.0000   -0.0000   -0.0000    0.0000   -3.1665    8.7938   -0.0000   -0.0000
   113 X1     3d0        0.0000    0.0000   -0.0000   -0.0000   -0.0000    0.3360   -2.0529    0.0000    0.0000
   114 X1     3d1+       0.0000    0.0000    0.0000    0.0000    0.0000   -0.0000    0.0000   -0.2774    2.1957
   115 X1     3d1+       0.0000    0.0000    0.0000    0.0000    0.0000   -0.0000    0.0000   -1.3225   10.4694
   116 X1     3d1+      -0.0000   -0.0000   -0.0000   -0.0000   -0.0000    0.0000   -0.0000    0.2865   -2.2678
   117 X1     3d2+       0.4285   -0.0044   -0.0000    0.0000   -0.0000   -0.0000    0.0000    0.0000    0.0000
   118 X1     3d2+      -0.9657    0.0100    0.0000   -0.0000    0.0000   -0.0000   -0.0000   -0.0000   -0.0000
   119 X1     3d2+       1.5611   -0.0161   -0.0000    0.0000   -0.0000    0.0000    0.0000    0.0000    0.0000
--

      Von Neumann Entropy (Root  1) =  0.41372


      Mulliken population analysis for root number:  1
      -----------------------------------------------


++    Molecular charges:
      ------------------

      Mulliken charges per centre and basis function type
      ---------------------------------------------------

                N1      N2      X1    
      1s       4.1002  4.1002 -0.1050
      2px      0.9652  0.9652  0.0084
      2pz      0.9594  0.9594  0.0028
      2py      0.9652  0.9652  0.0084
      3d2+     0.0000  0.0000  0.0000
      3d1+     0.0287  0.0287 -0.0027
      3d0      0.0074  0.0074 -0.0373
      3d1-     0.0287  0.0287 -0.0027
      3d2-     0.0000  0.0000  0.0000
      4f3+     0.0000  0.0000  0.0000
      4f2+     0.0000  0.0000  0.0000
      4f1+     0.0033  0.0033  0.0000
      4f0      0.0028  0.0028  0.0000
      4f1-     0.0033  0.0033  0.0000
      4f2-     0.0000  0.0000  0.0000
      4f3-     0.0000  0.0000  0.0000
      Total    7.0641  7.0641 -0.1282

      N-E     -0.0641 -0.0641  0.1282

      Total electronic charge=   14.000000

      Total            charge=   -0.000000
--



      Expectation values of various properties for root number:  1
      -----------------------------------------------------------


++    Molecular properties:
      ---------------------

      Charge (e):
                      =   -0.0000
      Dipole Moment (Debye):
      Origin of the operator (Ang)=    0.0000    0.0000    0.0000
                   X= -2.7109E-09               Y= -1.3613E-09               Z= -2.7887E-13           Total=  3.0335E-09
      Quadrupole Moment (Debye*Ang):
      Origin of the operator (Ang)=    0.0000    0.0000    0.0000
                  XX= -1.0181E+01              XY=  6.2614E-14              XZ=  5.6825E-13              YY= -1.0181E+01
                  YZ=  5.0674E-13              ZZ= -1.1461E+01
      In traceless form (Debye*Ang)
                  XX=  6.4003E-01              XY=  9.3921E-14              XZ=  8.5237E-13              YY=  6.4003E-01
                  YZ=  7.6010E-13              ZZ= -1.2801E+00
--

      Von Neumann Entropy (Root  2) =  1.64644


      Mulliken population analysis for root number:  2
      -----------------------------------------------


++    Molecular charges:
      ------------------

      Mulliken charges per centre and basis function type
      ---------------------------------------------------

                N1      N2      X1    
      1s       4.1002  4.1002 -0.1050
      2px      0.9857  0.9857  0.0064
      2pz      0.9594  0.9594  0.0028
      2py      0.9857  0.9857  0.0064
      3d2+     0.0000  0.0000  0.0000
      3d1+     0.0182  0.0182 -0.0213
      3d0      0.0074  0.0074 -0.0373
      3d1-     0.0182  0.0182 -0.0213
      3d2-     0.0000  0.0000  0.0000
      4f3+     0.0000  0.0000  0.0000
      4f2+    -0.0000 -0.0000  0.0000
      4f1+     0.0035  0.0035  0.0000
      4f0      0.0028  0.0028  0.0000
      4f1-     0.0035  0.0035  0.0000
      4f2-    -0.0000 -0.0000  0.0000
      4f3-     0.0000  0.0000  0.0000
      Total    7.0847  7.0847 -0.1693

      N-E     -0.0847 -0.0847  0.1693

      Total electronic charge=   14.000000

      Total            charge=   -0.000000
--



      Expectation values of various properties for root number:  2
      -----------------------------------------------------------


++    Molecular properties:
      ---------------------

      Charge (e):
                      =   -0.0000
      Dipole Moment (Debye):
      Origin of the operator (Ang)=    0.0000    0.0000    0.0000
                   X= -2.0817E-08               Y= -1.0453E-08               Z= -5.1345E-13           Total=  2.3294E-08
      Quadrupole Moment (Debye*Ang):
      Origin of the operator (Ang)=    0.0000    0.0000    0.0000
                  XX= -1.0368E+01              XY=  3.9997E-13              XZ=  2.6536E-12              YY= -1.0368E+01
                  YZ=  2.0931E-12              ZZ= -1.2971E+01
      In traceless form (Debye*Ang)
                  XX=  1.3016E+00              XY=  5.9996E-13              XZ=  3.9804E-12              YY=  1.3016E+00
                  YZ=  3.1397E-12              ZZ= -2.6031E+00
--

      Von Neumann Entropy (Root  3) =  1.63547


      Mulliken population analysis for root number:  3
      -----------------------------------------------


++    Molecular charges:
      ------------------

      Mulliken charges per centre and basis function type
      ---------------------------------------------------

                N1      N2      X1    
      1s       4.1002  4.1002 -0.1050
      2px      0.9854  0.9854  0.0064
      2pz      0.9594  0.9594  0.0028
      2py      0.9854  0.9854  0.0064
      3d2+     0.0000  0.0000  0.0000
      3d1+     0.0184  0.0184 -0.0210
      3d0      0.0074  0.0074 -0.0373
      3d1-     0.0184  0.0184 -0.0210
      3d2-     0.0000  0.0000  0.0000
      4f3+     0.0000  0.0000  0.0000
      4f2+    -0.0000 -0.0000  0.0000
      4f1+     0.0035  0.0035  0.0000
      4f0      0.0028  0.0028  0.0000
      4f1-     0.0035  0.0035  0.0000
      4f2-    -0.0000 -0.0000  0.0000
      4f3-     0.0000  0.0000  0.0000
      Total    7.0843  7.0843 -0.1687

      N-E     -0.0843 -0.0843  0.1687

      Total electronic charge=   14.000000

      Total            charge=   -0.000000
--



      Expectation values of various properties for root number:  3
      -----------------------------------------------------------


++    Molecular properties:
      ---------------------

      Charge (e):
                      =   -0.0000
      Dipole Moment (Debye):
      Origin of the operator (Ang)=    0.0000    0.0000    0.0000
                   X= -2.0530E-08               Y= -1.0309E-08               Z= -2.1678E-13           Total=  2.2973E-08
      Quadrupole Moment (Debye*Ang):
      Origin of the operator (Ang)=    0.0000    0.0000    0.0000
                  XX= -1.0365E+01              XY= -4.8782E-13              XZ=  2.6259E-12              YY= -1.0365E+01
                  YZ=  2.0673E-12              ZZ= -1.2947E+01
      In traceless form (Debye*Ang)
                  XX=  1.2911E+00              XY= -7.3173E-13              XZ=  3.9388E-12              YY=  1.2911E+00
                  YZ=  3.1010E-12              ZZ= -2.5822E+00
--

      Von Neumann Entropy (Root  4) =  1.63547


      Mulliken population analysis for root number:  4
      -----------------------------------------------


++    Molecular charges:
      ------------------

      Mulliken charges per centre and basis function type
      ---------------------------------------------------

                N1      N2      X1    
      1s       4.1002  4.1002 -0.1050
      2px      0.9854  0.9854  0.0064
      2pz      0.9594  0.9594  0.0028
      2py      0.9854  0.9854  0.0064
      3d2+     0.0000  0.0000  0.0000
      3d1+     0.0184  0.0184 -0.0210
      3d0      0.0074  0.0074 -0.0373
      3d1-     0.0184  0.0184 -0.0210
      3d2-     0.0000  0.0000  0.0000
      4f3+     0.0000  0.0000  0.0000
      4f2+    -0.0000 -0.0000  0.0000
      4f1+     0.0035  0.0035  0.0000
      4f0      0.0028  0.0028  0.0000
      4f1-     0.0035  0.0035  0.0000
      4f2-    -0.0000 -0.0000  0.0000
      4f3-     0.0000  0.0000  0.0000
      Total    7.0843  7.0843 -0.1687

      N-E     -0.0843 -0.0843  0.1687

      Total electronic charge=   14.000000

      Total            charge=   -0.000000
--



      Expectation values of various properties for root number:  4
      -----------------------------------------------------------


++    Molecular properties:
      ---------------------

      Charge (e):
                      =   -0.0000
      Dipole Moment (Debye):
      Origin of the operator (Ang)=    0.0000    0.0000    0.0000
                   X= -2.0530E-08               Y= -1.0309E-08               Z= -3.8545E-13           Total=  2.2973E-08
      Quadrupole Moment (Debye*Ang):
      Origin of the operator (Ang)=    0.0000    0.0000    0.0000
                  XX= -1.0365E+01              XY=  3.0388E-13              XZ=  2.6106E-12              YY= -1.0365E+01
                  YZ=  2.0844E-12              ZZ= -1.2947E+01
      In traceless form (Debye*Ang)
                  XX=  1.2911E+00              XY=  4.5582E-13              XZ=  3.9160E-12              YY=  1.2911E+00
                  YZ=  3.1266E-12              ZZ= -2.5822E+00
--

      Von Neumann Entropy (Root  5) =  1.99995


      Mulliken population analysis for root number:  5
[...]
--------------------------------------------------------------------------------
 CI COEFFICIENTS LARGER THAN  0.50D-01
  Occupation of active orbitals, and spin coupling
  of open shells. (u,d: Spin up or down).
  SGUGA info is (Midvert:IsyUp:UpperWalk/LowerWalk)
        Conf  SGUGA info        Occupation    Coefficient         Weight
           2  ( 2:1:   1/   1)   2ud0           -0.418487       0.175132
           3  ( 2:1:   2/   1)   2u0d            0.566352       0.320754
           4  ( 2:1:   1/   2)   u2d0           -0.566352       0.320754
           5  ( 2:1:   2/   2)   u20d           -0.418487       0.175131
          17  ( 5:1:   2/   1)   u0d2            0.051587       0.002661
          18  ( 5:1:   1/   2)   0u2d           -0.051587       0.002661

  The CI coefficients for the MIXED state nr.   5
--------------------------------------------------------------------------------
 CI COEFFICIENTS LARGER THAN  0.50D-01
  Occupation of active orbitals, and spin coupling
  of open shells. (u,d: Spin up or down).
  SGUGA info is (Midvert:IsyUp:UpperWalk/LowerWalk)
        Conf  SGUGA info        Occupation    Coefficient         Weight
           2  ( 2:1:   1/   1)   2ud0           -0.651871       0.424936
           3  ( 2:1:   2/   1)   2u0d           -0.103915       0.010798
           4  ( 2:1:   1/   2)   u2d0           -0.103914       0.010798
           5  ( 2:1:   2/   2)   u20d            0.651871       0.424936
          16  ( 5:1:   1/   1)   u02d           -0.250534       0.062767
          19  ( 5:1:   2/   2)   0ud2            0.250534       0.062767

  The CI coefficients for the MIXED state nr.   6
--------------------------------------------------------------------------------
 CI COEFFICIENTS LARGER THAN  0.50D-01
  Occupation of active orbitals, and spin coupling
  of open shells. (u,d: Spin up or down).
  SGUGA info is (Midvert:IsyUp:UpperWalk/LowerWalk)
        Conf  SGUGA info        Occupation    Coefficient         Weight
           1  ( 1:1:   1/   1)   2200           -0.078355       0.006140
           6  ( 3:1:   1/   1)   2020           -0.343321       0.117869
           7  ( 3:1:   2/   1)   20ud           -0.108098       0.011685
           8  ( 3:1:   3/   1)   2002            0.125608       0.015777
           9  ( 3:1:   1/   2)   ud20           -0.100864       0.010174
          10  ( 3:1:   2/   2)   udud            0.479728       0.230139
          11  ( 3:1:   3/   2)   ud02            0.100864       0.010174
          12  ( 3:1:   1/   3)   0220            0.125608       0.015777
          13  ( 3:1:   2/   3)   02ud            0.108098       0.011685
          14  ( 3:1:   3/   3)   0202           -0.343321       0.117869
          15  ( 4:1:   1/   1)   uudd           -0.671594       0.451038

  The CI coefficients for the MIXED state nr.   7
--------------------------------------------------------------------------------
 CI COEFFICIENTS LARGER THAN  0.50D-01
  Occupation of active orbitals, and spin coupling
  of open shells. (u,d: Spin up or down).
  SGUGA info is (Midvert:IsyUp:UpperWalk/LowerWalk)
        Conf  SGUGA info        Occupation    Coefficient         Weight
           6  ( 3:1:   1/   1)   2020            0.243289       0.059190
           7  ( 3:1:   2/   1)   20ud            0.362775       0.131606
           8  ( 3:1:   3/   1)   2002           -0.243306       0.059198
           9  ( 3:1:   1/   2)   ud20           -0.362780       0.131609
          10  ( 3:1:   2/   2)   udud            0.486615       0.236794
          11  ( 3:1:   3/   2)   ud02            0.362780       0.131609
          12  ( 3:1:   1/   3)   0220           -0.243306       0.059198
          13  ( 3:1:   2/   3)   02ud           -0.362775       0.131606
          14  ( 3:1:   3/   3)   0202            0.243289       0.059190

  The CI coefficients for the MIXED state nr.   8
--------------------------------------------------------------------------------
 CI COEFFICIENTS LARGER THAN  0.50D-01
  Occupation of active orbitals, and spin coupling
  of open shells. (u,d: Spin up or down).
  SGUGA info is (Midvert:IsyUp:UpperWalk/LowerWalk)
        Conf  SGUGA info        Occupation    Coefficient         Weight
           6  ( 3:1:   1/   1)   2020            0.260155       0.067681
           7  ( 3:1:   2/   1)   20ud           -0.342963       0.117623
           8  ( 3:1:   3/   1)   2002           -0.257857       0.066490
           9  ( 3:1:   1/   2)   ud20            0.345163       0.119138
          10  ( 3:1:   2/   2)   udud            0.508022       0.258086
          11  ( 3:1:   3/   2)   ud02           -0.345163       0.119138
          12  ( 3:1:   1/   3)   0220           -0.257857       0.066490
          13  ( 3:1:   2/   3)   02ud            0.342963       0.117623
          14  ( 3:1:   3/   3)   0202            0.260155       0.067681

  The CI coefficients for the MIXED state nr.   9
--------------------------------------------------------------------------------
 CI COEFFICIENTS LARGER THAN  0.50D-01
  Occupation of active orbitals, and spin coupling
  of open shells. (u,d: Spin up or down).
  SGUGA info is (Midvert:IsyUp:UpperWalk/LowerWalk)
        Conf  SGUGA info        Occupation    Coefficient         Weight
           6  ( 3:1:   1/   1)   2020           -0.074748       0.005587
           7  ( 3:1:   2/   1)   20ud            0.315469       0.099521
           8  ( 3:1:   3/   1)   2002           -0.594288       0.353178
           9  ( 3:1:   1/   2)   ud20            0.204240       0.041714
          11  ( 3:1:   3/   2)   ud02            0.204240       0.041714
          12  ( 3:1:   1/   3)   0220            0.594288       0.353178
          13  ( 3:1:   2/   3)   02ud            0.315469       0.099521
          14  ( 3:1:   3/   3)   0202            0.074748       0.005587

  The CI coefficients for the MIXED state nr.  10
--------------------------------------------------------------------------------
 CI COEFFICIENTS LARGER THAN  0.50D-01
  Occupation of active orbitals, and spin coupling
  of open shells. (u,d: Spin up or down).
  SGUGA info is (Midvert:IsyUp:UpperWalk/LowerWalk)
        Conf  SGUGA info        Occupation    Coefficient         Weight
           6  ( 3:1:   1/   1)   2020           -0.078651       0.006186
           7  ( 3:1:   2/   1)   20ud            0.367370       0.134961
           8  ( 3:1:   3/   1)   2002            0.367490       0.135049
           9  ( 3:1:   1/   2)   ud20            0.473080       0.223804
          11  ( 3:1:   3/   2)   ud02            0.473080       0.223804
          12  ( 3:1:   1/   3)   0220           -0.367490       0.135049
          13  ( 3:1:   2/   3)   02ud            0.367370       0.134961
          14  ( 3:1:   3/   3)   0202            0.078651       0.006186

--

--- Stop Module: caspt2 at Tue Apr 28 19:23:50 2020 /rc=_RC_ALL_IS_WELL_ ---
*** files: xmldump
    saved to directory /home/gayverjr/OpenCAP/molcas_test/N2
--- Module caspt2 spent 37 seconds ---

--- Start Module: rassi at Tue Apr 28 19:23:50 2020 ---

()()()()()()()()()()()()()()()()()()()()()()()()()()()()()()()()()()()()()()()()()()()()()()()()()()

                                               &RASSI

                                   only a single process is used
                       available to each process: 20 GB of memory, 16 threads
()()()()()()()()()()()()()()()()()()()()()()()()()()()()()()()()()()()()()()()()()()()()()()()()()()


      ********************************************************************************
      *                                                                              *
      *                             General data section                             *
      *                                                                              *
      ********************************************************************************

   Specific data for JOBIPH file JOBIPH                                                                                                                          
   -------------------------------------

   Header from SEWARD:
                                                                               
        Integrals generated by seward 4.2.0  , Tue Apr 28 19:22:20 2020        

   CASSCF title (first line only):
       cas 5,13 test                                                           

   STATE IRREP:                            1
   SPIN MULTIPLICITY:                      1
   ACTIVE ELECTRONS:                       4
   MAX RAS1 HOLES:                         0
   MAX RAS3 ELECTRONS:                     0
   NR OF CONFIG:                          20

  Info: creating TDMFILE
        estimated file size                 14935 kB
        TDMs in AO format


   The following data are common to all the states:
   ------------------------------------------------
   (note: frozen counts as inactive, deleted as secondary)

      Nr of irreps: 1

                 Total     No./Irrep 
      Irrep                  1
                             a

      INACTIVE       5       5
      ACTIVE         4       4
      SECONDARY    110     110
      BASIS        119     119

      RAS1           0       0
      RAS2           4       4
      RAS3           0       0

        MATRIX ELEMENTS WILL BE COMPUTED FOR THE FOLLOWING ONE-ELECTRON OPERATORS, UNLESS ZERO BY SYMMETRY.
   (Herm=Hermitian, Anti=Antihermitian, Sing=Singlet operator, Trip=Triplet operator)
     MLTPL  0   1 (HERMSING)     MLTPL  1   1 (HERMSING)     MLTPL  1   2 (HERMSING)
     MLTPL  1   3 (HERMSING)     MLTPL  2   1 (HERMSING)     MLTPL  2   2 (HERMSING)
     MLTPL  2   3 (HERMSING)     MLTPL  2   4 (HERMSING)     MLTPL  2   5 (HERMSING)
     MLTPL  2   6 (HERMSING)     VELOCITY   1 (ANTISING)     VELOCITY   2 (ANTISING)
     VELOCITY   3 (ANTISING)     ANGMOM     1 (ANTISING)     ANGMOM     2 (ANTISING)
     ANGMOM     3 (ANTISING)     MLTPV  2   1 (ANTISING)     MLTPV  2   2 (ANTISING)
     MLTPV  2   3 (ANTISING)     MLTPV  2   4 (ANTISING)     MLTPV  2   5 (ANTISING)
     MLTPV  2   6 (ANTISING)

       EIGENSTATES OF A SPIN-FREE HAMILTONIAN WILL BE COMPUTED BASED ON:

  a (effective) Hamiltonian matrix that was read from the wavefunction file(s).
  SO coupling elements will be added.
       EIGENSTATES OF SPIN-ORBIT HAMILTONIAN WILL BE COMPUTED
        MATRIX ELEMENTS OVER SPIN EIGENSTATES FOR:
     MLTPL  0   1 (HERMSING)     MLTPL  1   1 (HERMSING)     MLTPL  1   2 (HERMSING)
     MLTPL  1   3 (HERMSING)     MLTPL  2   1 (HERMSING)     MLTPL  2   2 (HERMSING)
     MLTPL  2   3 (HERMSING)     MLTPL  2   4 (HERMSING)     MLTPL  2   5 (HERMSING)
     MLTPL  2   6 (HERMSING)     VELOCITY   1 (ANTISING)     VELOCITY   2 (ANTISING)
     VELOCITY   3 (ANTISING)     ANGMOM     1 (ANTISING)     ANGMOM     2 (ANTISING)
     ANGMOM     3 (ANTISING)     MLTPV  2   1 (ANTISING)     MLTPV  2   2 (ANTISING)
     MLTPV  2   3 (ANTISING)     MLTPV  2   4 (ANTISING)     MLTPV  2   5 (ANTISING)
     MLTPV  2   6 (ANTISING)

  Nr of states:                   10

   State:        1   2   3   4   5   6   7   8   9  10
  JobIph:        1   1   1   1   1   1   1   1   1   1
 Root nr:        1   2   3   4   5   6   7   8   9  10

  HAMILTONIAN MATRIX FOR THE ORIGINAL STATES:

  Diagonal, with energies
   -109.35517623   -108.99401039   -108.97529545   -108.97539842   -108.71243688
   -108.64668251   -108.64668251   -108.91291065   -108.57378181   -108.57441049

      OVERLAP MATRIX FOR THE ORIGINAL STATES:

  Diagonal, with elements
      1.00000000      1.00000000      1.00000000      1.00000000      1.00000000
      1.00000000      1.00000000      1.00000000      1.00000000      1.00000000

::    RASSI State    1     Total energy:   -109.35517623
::    RASSI State    2     Total energy:   -108.99401039
::    RASSI State    3     Total energy:   -108.97529545
::    RASSI State    4     Total energy:   -108.97539842
::    RASSI State    5     Total energy:   -108.71243688
::    RASSI State    6     Total energy:   -108.64668251
::    RASSI State    7     Total energy:   -108.64668251
::    RASSI State    8     Total energy:   -108.91291065
::    RASSI State    9     Total energy:   -108.57378181
::    RASSI State   10     Total energy:   -108.57441049



      ****************************************************************************************************
      *                                                                                                  *
      *                                         Spin-free section                                        *
      *                                                                                                  *
      *                 Note: index according to input order, order according to energy.                 *
      *                                                                                                  *
      ****************************************************************************************************



  SPIN-FREE ENERGIES:
  (Shifted by EMIN (a.u.) =       -109.3551762329)

 SF State       Relative EMIN(au)   Rel lowest level(eV)    D:o, cm**(-1)

     1             0.0000000000        0.0000000000              0.0000
     2             0.3611658435        9.8278232654          79266.7404
     4             0.3797778132       10.3342807618          83351.5955
     3             0.3798807835       10.3370827267          83374.1949
     8             0.4422655780       12.0346594667          97066.0747
     5             0.6427393492       17.4898286870         141064.9817
     7             0.7084937236       19.2790963655         155496.3988
     6             0.7084937236       19.2790963655         155496.3988
    10             0.7807657447       21.2457182467         171358.2740
     9             0.7813944245       21.2628254951         171496.2533

++ Dipole transition strengths (spin-free states):
   -----------------------------------------------
     for osc. strength at least  1.00000000E-05

      From   To        Osc. strength     Einstein coefficients Ax, Ay, Az (sec-1)    Total A (sec-1)
     -----------------------------------------------------------------------------------------------
         1    8       7.05197349E-01  1.36589015E-16  8.89675240E-17  4.43187837E+09  4.43187837E+09
         4   10       3.77640225E-04  8.87349740E-18  1.71237873E-17  1.95097514E+06  1.95097514E+06
         4    9       1.00910332E-04  4.07489916E-17  5.69089154E-17  5.22961661E+05  5.22961661E+05
         3   10       1.00726497E-04  4.05266908E-17  5.65984570E-17  5.20108729E+05  5.20108729E+05
         3    9       3.78135325E-04  8.90844408E-18  1.71912248E-17  1.95865860E+06  1.95865860E+06
         8    5       7.08886445E-03  2.82117895E-19  1.83758037E-19  9.15382649E+06  9.15382649E+06
     -----------------------------------------------------------------------------------------------
--

++ Velocity transition strengths (spin-free states):
   -------------------------------------------------
     for osc. strength at least  1.00000000E-05

      From   To        Osc. strength     Einstein coefficients Ax, Ay, Az (sec-1)    Total A (sec-1)
     -----------------------------------------------------------------------------------------------
         1    8       1.54980672E+00  5.93028733E-16  2.79252135E-16  9.73990455E+09  9.73990455E+09
         4   10       4.67366665E-04  1.46487697E-17  4.01483876E-17  2.41452230E+06  2.41452230E+06
         4    9       1.24495710E-04  6.98360701E-17  1.35280648E-16  6.45191454E+05  6.45191454E+05
         3   10       1.24722926E-04  6.97088456E-17  1.35034199E-16  6.44016068E+05  6.44016068E+05
         3    9       4.66754733E-04  1.46679751E-17  4.02010245E-17  2.41768782E+06  2.41768782E+06
         8    5       3.16169419E-03  2.48580393E-19  1.17054404E-19  4.08268493E+06  4.08268493E+06
     -----------------------------------------------------------------------------------------------
--

++ Length and velocity gauge comparison (spin-free states):
   --------------------------------------------------------

 --------------------------------------------------
 A comparison between the dipole oscillator strengths in 
 length and velocity gauge will be performed

 All dipole oscillator differences above the tolerance of   0.10000000000000001       will be printed 

 Due to basis set deficiency these oscillator may be problematic 

 The tolerance is defined as ABS(1-O_l/O_v) 
 O_l : dipole oscillator strength in length gauge
 O_p : dipole oscillator strength in velocity gauge
 --------------------------------------------------

  Problematic transitions have been found

      From   To       Difference (%) Osc. st. (len.) Osc. st. (vel.)
     ---------------------------------------------------------------
         1    8            54.497723  7.05197349E-01  1.54980672E+00
         4   10            19.198297  3.77640225E-04  4.67366665E-04
         4    9            18.944732  1.00910332E-04  1.24495710E-04
         3   10            19.239790  1.00726497E-04  1.24722926E-04
         3    9            18.986290  3.78135325E-04  4.66754733E-04
         8    5           124.210946  7.08886445E-03  3.16169419E-03
     ---------------------------------------------------------------

 Number of problematic transitions =                     6

--

 Electric-dipole - electric-octupole not included
 Electric-dipole - magnetic-quadrupole not included


      ****************************************************************************************************
      *                                                                                                  *
      *                                    Special properties section                                    *
      *                                                                                                  *
      ****************************************************************************************************


++ I/O STATISTICS
 
  I. General I/O information
  - - - - - - - - - - - - - - - - - - - - - - - - - - - - - - - - - - - - - - - - - - -
  Unit  Name          Flsize      Write/Read            MBytes           Write/Read
                      (MBytes)       Calls              In/Out           Time, sec.
  - - - - - - - - - - - - - - - - - - - - - - - - - - - - - - - - - - - - - - - - - - -
   1  SCRATCH           0.00 .      10/      55 .      0.0/      0.0 .       0/       0
   2  ANNI              0.00 .       0/       0 .      0.0/      0.0 .       0/       0
   3  RUNFILE          13.55 .     182/    3368 .      1.3/     24.4 .       0/       0
   4  ONEINT            2.94 .       0/   11001 .      0.0/   3392.7 .       0/       0
   5  JOBIPH            3.62 .       0/      98 .      0.0/      1.4 .       0/       0
   6  TDMFILE          11.92 .     110/     110 .     11.9/     11.9 .       0/       0
  - - - - - - - - - - - - - - - - - - - - - - - - - - - - - - - - - - - - - - - - - - -
   *  TOTAL            32.04 .     302/   14632 .     13.2/   3430.4 .       0/       0
  - - - - - - - - - - - - - - - - - - - - - - - - - - - - - - - - - - - - - - - - - - -
 
  II. I/O Access Patterns
  - - - - - - - - - - - - - - - - - - - -
  Unit  Name               % of random
                         Write/Read calls
  - - - - - - - - - - - - - - - - - - - -
   1  SCRATCH             90.0/ 100.0
   2  ANNI                 0.0/   0.0
   3  RUNFILE             28.6/  10.8
   4  ONEINT               0.0/  32.9
   5  JOBIPH               0.0/  75.5
   6  TDMFILE             99.1/ 100.0
  - - - - - - - - - - - - - - - - - - - -
--
--- Stop Module: rassi at Tue Apr 28 19:23:51 2020 /rc=_RC_ALL_IS_WELL_ ---
*** files: gs.rassi.h5 xmldump
    saved to directory /home/gayverjr/OpenCAP/molcas_test/N2
--- Module rassi spent 1 second ---

    Timing: Wall=92.52 User=899.40 System=64.22
