                  Welcome to Q-Chem
     A Quantum Leap Into The Future Of Chemistry


 Q-Chem 5.3 (devel), Q-Chem, Inc., Pleasanton, CA (2020)

 Yihan Shao,  Zhengting Gan,  E. Epifanovsky,  A. T. B. Gilbert,  M. Wormit,  
 J. Kussmann,  A. W. Lange,  A. Behn,  Jia Deng,  Xintian Feng,  D. Ghosh,  
 M. Goldey,  P. R. Horn,  L. D. Jacobson,  I. Kaliman,  T. Kus,  A. Landau,  
 Jie Liu,  E. I. Proynov,  R. M. Richard,  R. P. Steele,  E. J. Sundstrom,  
 H. L. Woodcock III,  P. M. Zimmerman,  D. Zuev,  B. Alam,  B. Albrecht,  
 E. Alguire,  S. A. Baeppler,  D. Barton,  Z. Benda,  Y. A. Bernard,  
 E. J. Berquist,  K. B. Bravaya,  H. Burton,  K. Carter-Fenk,  D. Casanova,  
 Chun-Min Chang,  Yunqing Chen,  A. Chien,  K. D. Closser,  M. P. Coons,  
 S. Coriani,  S. Dasgupta,  A. L. Dempwolff,  M. Diedenhofen,  Hainam Do,  
 R. G. Edgar,  Po-Tung Fang,  S. Faraji,  S. Fatehi,  Qingguo Feng,  
 J. Fosso-Tande,  J. Gayvert,  Qinghui Ge,  A. Ghysels,  G. Gidofalvi,  
 J. Gomes,  J. Gonthier,  A. Gunina,  D. Hait,  M. W. D. Hanson-Heine,  
 P. H. P. Harbach,  A. W. Hauser,  M. F. Herbst,  J. E. Herr,  
 E. G. Hohenstein,  Z. C. Holden,  Kerwin Hui,  B. C. Huynh,  T.-C. Jagau,  
 Hyunjun Ji,  B. Kaduk,  K. Khistyaev,  Jaehoon Kim,  P. Klunzinger,  K. Koh,  
 D. Kosenkov,  L. Koulias,  T. Kowalczyk,  C. M. Krauter,  A. Kunitsa,  
 Ka Un Lao,  A. Laurent,  K. V. Lawler,  Joonho Lee,  D. Lefrancois,  
 S. Lehtola,  D. S. Levine,  Yi-Pei Li,  You-Sheng Lin,  Fenglai Liu,  
 Kuan-Yu Liu,  E. Livshits,  M. Loipersberger,  A. Luenser,  P. Manohar,  
 E. Mansoor,  S. F. Manzer,  Shan-Ping Mao,  Yuezhi Mao,  N. Mardirossian,  
 A. V. Marenich,  T. Markovich,  L. A. Martinez-Martinez,  S. A. Maurer,  
 N. J. Mayhall,  S. C. McKenzie,  J.-M. Mewes,  P. Morgante,  A. F. Morrison,  
 J. W. Mullinax,  K. Nanda,  T. S. Nguyen-Beck,  R. Olivares-Amaya,  
 J. A. Parkhill,  S. K. Paul,  F. Pavosevic,  Zheng Pei,  T. M. Perrine,  
 F. Plasser,  P. Pokhilko,  S. Prager,  A. Prociuk,  E. Ramos,  B. Rana,  
 D. R. Rehn,  F. Rob,  M. Scheurer,  M. Schneider,  N. Sergueev,  
 S. M. Sharada,  S. Sharma,  D. W. Small,  T. Stauch,  C. J. Stein,  
 T. Stein,  Yu-Chuan Su,  S. P. Veccham,  Zhen Tao,  A. J. W. Thom,  
 A. Tkatchenko,  T. Tsuchimochi,  N. M. Tubman,  L. Vogt,  M. L. Vidal,  
 O. Vydrov,  M. A. Watson,  J. Wenzel,  M. de Wergifosse,  T. A. Wesolowski,  
 A. White,  J. Witte,  A. Yamada,  Jun Yang,  K. Yao,  S. Yeganeh,  
 S. R. Yost,  Zhi-Qiang You,  A. Zech,  Igor Ying Zhang,  Xing Zhang,  
 Yan Zhao,  Ying Zhu,  B. R. Brooks,  G. K. L. Chan,  C. J. Cramer,  
 M. S. Gordon,  W. J. Hehre,  A. Klamt,  M. W. Schmidt,  C. D. Sherrill,  
 D. G. Truhlar,  A. Aspuru-Guzik,  R. Baer,  A. T. Bell,  N. A. Besley,  
 Jeng-Da Chai,  A. E. DePrince, III,  R. A. DiStasio Jr.,  A. Dreuw,  
 B. D. Dunietz,  T. R. Furlani,  Chao-Ping Hsu,  Yousung Jung,  Jing Kong,  
 D. S. Lambrecht,  WanZhen Liang,  C. Ochsenfeld,  V. A. Rassolov,  
 L. V. Slipchenko,  J. E. Subotnik,  T. Van Voorhis,  J. M. Herbert,  
 A. I. Krylov,  P. M. W. Gill,  M. Head-Gordon

 Contributors to earlier versions of Q-Chem not listed above: 
 R. D. Adamson,  B. Austin,  J. Baker,  G. J. O. Beran,  K. Brandhorst,  
 S. T. Brown,  E. F. C. Byrd,  A. K. Chakraborty,  C.-L. Cheng,  
 Siu Hung Chien,  D. M. Chipman,  D. L. Crittenden,  H. Dachsel,  
 R. J. Doerksen,  A. D. Dutoi,  L. Fusti-Molnar,  W. A. Goddard III,  
 A. Golubeva-Zadorozhnaya,  S. R. Gwaltney,  G. Hawkins,  A. Heyden,  
 S. Hirata,  G. Kedziora,  F. J. Keil,  C. Kelley,  Jihan Kim,  R. A. King,  
 R. Z. Khaliullin,  P. P. Korambath,  W. Kurlancheek,  A. M. Lee,  M. S. Lee,  
 S. V. Levchenko,  Ching Yeh Lin,  D. Liotard,  R. C. Lochan,  I. Lotan,  
 P. E. Maslen,  N. Nair,  D. P. O'Neill,  D. Neuhauser,  E. Neuscamman,  
 C. M. Oana,  R. Olson,  B. Peters,  R. Peverati,  P. A. Pieniazek,  
 Y. M. Rhee,  J. Ritchie,  M. A. Rohrdanz,  E. Rosta,  N. J. Russ,  
 H. F. Schaefer III,  N. E. Schultz,  N. Shenvi,  A. C. Simmonett,  A. Sodt,  
 D. Stuck,  K. S. Thanthiriwatte,  V. Vanovschi,  Tao Wang,  A. Warshel,  
 C. F. Williams,  Q. Wu,  X. Xu,  W. Zhang

 Please cite Q-Chem as follows:
 Y. Shao et al., Mol. Phys. 113, 184-215 (2015)
 DOI: 10.1080/00268976.2014.952696

 Q-Chem 5.3.0 for Intel X86 EM64T Linux

 Parts of Q-Chem use Armadillo 9.800.1 (Horizon Scraper).
 http://arma.sourceforge.net/

 Q-Chem begins on Thu Apr  2 11:23:47 2020  

Host: node5
0

     Scratch files written to /scratch/gayverjr/re1.2807914175.saved//
Processing $rem in /home/gayverjr/qchem_james/trunk/config/preferences:
Processing $rem in /home/gayverjr/.qchemrc:
Core orbitals will be frozen

Checking the input file for inconsistencies... 	...done.

--------------------------------------------------------------
User input:
--------------------------------------------------------------
$molecule
0	1
N        0.0     0.0     1.039
N        0.0     0.0     -1.039
$end

$rem
JOBTYPE	 sp
INPUT_BOHR 1
PURECART 1111
METHOD	 eom-ccsd
BASIS	 gen
GUI	 2 
EA_STATES	[0,0,6,0,0,0,0,0]
CC_TRANS_PROP 2
STATE_ANALYSIS 1
$end

$basis
N	0
S   10   1.00
      1.142000D+04           5.230000D-04
      1.712000D+03           4.045000D-03
      3.893000D+02           2.077500D-02
      1.100000D+02           8.072700D-02
      3.557000D+01           2.330740D-01
      1.254000D+01           4.335010D-01
      4.644000D+00           3.474720D-01
      1.293000D+00           4.126200D-02
      5.118000D-01          -8.508000D-03
      1.787000D-01           2.384000D-03
S   10   1.00
      1.142000D+04          -1.150000D-04
      1.712000D+03          -8.950000D-04
      3.893000D+02          -4.624000D-03
      1.100000D+02          -1.852800D-02
      3.557000D+01          -5.733900D-02
      1.254000D+01          -1.320760D-01
      4.644000D+00          -1.725100D-01
      1.293000D+00           1.518140D-01
      5.118000D-01           5.999440D-01
      1.787000D-01           3.874620D-01
S   1   1.00
      1.293000D+00           1.000000D+00
S   1   1.00
      1.787000D-01           1.000000D+00
S   1   1.00
      0.0576000              1.0000000
P   5   1.00
      2.663000D+01           1.467000D-02
      5.948000D+00           9.176400D-02
      1.742000D+00           2.986830D-01
      5.550000D-01           4.984870D-01
      1.725000D-01           3.370230D-01
P   1   1.00
      5.550000D-01           1.000000D+00
P   1   1.00
      1.725000D-01           1.000000D+00
P   1   1.00
      0.0491000              1.0000000
D   1   1.00
      1.654000D+00           1.000000D+00
D   1   1.00
      4.690000D-01           1.000000D+00
D   1   1.00
      0.1510000              1.0000000
F   1   1.00
      1.093000D+00           1.0000000
F   1   1.00
      0.3640000              1.0000000
S   1   1.00
      0.0288000              1.0000000
S   1   1.00
      0.0144000              1.0000000
S   1   1.00
      0.0072000              1.0000000
P   1   1.00
      0.0245500              1.0000000 
P   1   1.00
      0.0122750              1.0000000 
P   1   1.00
      0.0061375              1.0000000
D   1   1.00
      0.0755000              1.0000000 
D   1   1.00
      0.0377500              1.0000000 
D   1   1.00
      0.0188750              1.0000000
****
$end
--------------------------------------------------------------
 ----------------------------------------------------------------
             Standard Nuclear Orientation (Bohr)
    I     Atom           X                Y                Z
 ----------------------------------------------------------------
    1      N       0.0000000000     0.0000000000     1.0390000000
    2      N       0.0000000000     0.0000000000    -1.0390000000
 ----------------------------------------------------------------
 Molecular Point Group                 D2h   NOp =  8
 Largest Abelian Subgroup              D2h   NOp =  8
 Nuclear Repulsion Energy =          23.58036574 hartrees
 There are        7 alpha and        7 beta electrons
 Requested basis set is non-standard
 There are 46 shells and 146 basis functions
 Total memory of 2000 MB is distributed as follows: 
   MEM_STATIC is set to 192 MB
   QALLOC/CCMAN JOB total memory use is  1808 MB
 Warning: actual memory use might exceed 2000 MB

 Total QAlloc Memory Limit   2000 MB
 Mega-Array Size       188 MB
 MEM_STATIC part       192 MB

                       Distance Matrix (Bohrs)
             N (  1)
   N (  2)  2.078000

 A cutoff of  1.0D-14 yielded   1081 shell pairs
 There are     10977 function pairs (     14937 Cartesian)
James is printing the overlap matrix 
            1           2           3           4           5           6
    1   1.0000000   0.0000010   0.5493018   0.1617744   0.0720383   0.0000000
    2   0.0000010   1.0000000   0.6669961   0.9008143   0.6024354   0.0000000
    3   0.5493018   0.6669961   1.0000000   0.5279689   0.2569039   0.0000000
    4   0.1617744   0.9008143   0.5279689   1.0000000   0.7957189   0.0000000
    5   0.0720383   0.6024354   0.2569039   0.7957189   1.0000000   0.0000000
    6   0.0000000   0.0000000   0.0000000   0.0000000   0.0000000   1.0000000
    7   0.0000000   0.0000000   0.0000000   0.0000000   0.0000000   0.0000000
    8  -0.0000000  -0.0000000   0.0000000   0.0000000   0.0000000   0.0000000
    9   0.0000000   0.0000000   0.0000000   0.0000000   0.0000000   0.9480006
   10   0.0000000   0.0000000   0.0000000   0.0000000   0.0000000   0.0000000
   11  -0.0000000  -0.0000000   0.0000000   0.0000000   0.0000000   0.0000000
   12   0.0000000   0.0000000   0.0000000   0.0000000   0.0000000   0.7497374
   13   0.0000000   0.0000000   0.0000000   0.0000000   0.0000000   0.0000000
   14  -0.0000000   0.0000000   0.0000000   0.0000000   0.0000000   0.0000000
   15   0.0000000   0.0000000   0.0000000   0.0000000   0.0000000   0.3414802
   16   0.0000000   0.0000000   0.0000000   0.0000000   0.0000000   0.0000000
   17   0.0000000  -0.0000000   0.0000000   0.0000000   0.0000000   0.0000000
   18   0.0000000   0.0000000   0.0000000   0.0000000   0.0000000   0.0000000
   19   0.0000000   0.0000000   0.0000000   0.0000000   0.0000000   0.0000000
   20   0.0000000   0.0000000   0.0000000   0.0000000   0.0000000   0.0000000
   21   0.0000000   0.0000000   0.0000000   0.0000000   0.0000000  -0.0000000
   22   0.0000000   0.0000000   0.0000000   0.0000000   0.0000000   0.0000000
   23   0.0000000   0.0000000   0.0000000   0.0000000   0.0000000   0.0000000
   24   0.0000000   0.0000000   0.0000000   0.0000000   0.0000000   0.0000000
   25   0.0000000   0.0000000   0.0000000   0.0000000   0.0000000   0.0000000
   26   0.0000000   0.0000000   0.0000000   0.0000000   0.0000000  -0.0000000
   27   0.0000000   0.0000000   0.0000000   0.0000000   0.0000000   0.0000000
   28   0.0000000   0.0000000   0.0000000   0.0000000   0.0000000   0.0000000
   29   0.0000000   0.0000000   0.0000000   0.0000000   0.0000000   0.0000000
   30   0.0000000   0.0000000   0.0000000   0.0000000   0.0000000   0.0000000
   31   0.0000000   0.0000000   0.0000000   0.0000000   0.0000000  -0.0000000
   32   0.0000000   0.0000000   0.0000000   0.0000000   0.0000000   0.0000000
   33   0.0000000   0.0000000   0.0000000   0.0000000   0.0000000   0.0000000
   34   0.0000000   0.0000000   0.0000000   0.0000000   0.0000000   0.0000000
   35   0.0000000   0.0000000   0.0000000   0.0000000   0.0000000   0.0000000
   36   0.0000000  -0.0000000   0.0000000   0.0000000   0.0000000   0.0000000
   37   0.0000000   0.0000000   0.0000000   0.0000000   0.0000000   0.0000000
   38   0.0000000   0.0000000   0.0000000   0.0000000   0.0000000   0.0000000
   39   0.0000000   0.0000000   0.0000000   0.0000000   0.0000000   0.0000000
   40   0.0000000   0.0000000   0.0000000   0.0000000   0.0000000   0.0000000
   41   0.0000000   0.0000000   0.0000000   0.0000000   0.0000000   0.0000000
   42   0.0000000   0.0000000   0.0000000   0.0000000   0.0000000   0.0000000
   43  -0.0000000  -0.0000000   0.0000000  -0.0000000   0.0000000   0.0000000
   44   0.0000000   0.0000000   0.0000000   0.0000000   0.0000000   0.0000000
   45   0.0000000   0.0000000   0.0000000   0.0000000   0.0000000   0.0000000
   46   0.0000000   0.0000000   0.0000000   0.0000000   0.0000000   0.0000000
   47   0.0433377   0.4118486   0.1577755   0.5749838   0.9154521   0.0000000
   48   0.0259365   0.2646175   0.0953681   0.3808350   0.7155418   0.0000000
   49   0.0154754   0.1639387   0.0571779   0.2397280   0.4983090   0.0000000
   50   0.0000000   0.0000000   0.0000000   0.0000000   0.0000000   0.1793037
   51   0.0000000   0.0000000   0.0000000   0.0000000   0.0000000   0.0000000
   52  -0.0000000   0.0000000   0.0000000   0.0000000   0.0000000   0.0000000
   53   0.0000000   0.0000000   0.0000000   0.0000000   0.0000000   0.0853986
   54   0.0000000   0.0000000   0.0000000   0.0000000   0.0000000   0.0000000
   55  -0.0000000   0.0000000   0.0000000   0.0000000   0.0000000   0.0000000
   56   0.0000000   0.0000000   0.0000000   0.0000000   0.0000000   0.0383686
   57   0.0000000   0.0000000   0.0000000   0.0000000   0.0000000   0.0000000
   58  -0.0000000   0.0000000   0.0000000   0.0000000   0.0000000   0.0000000
   59   0.0000000   0.0000000   0.0000000   0.0000000   0.0000000   0.0000000
   60   0.0000000   0.0000000   0.0000000   0.0000000   0.0000000   0.0000000
   61   0.0000000   0.0000000   0.0000000   0.0000000   0.0000000   0.0000000
   62   0.0000000   0.0000000   0.0000000   0.0000000   0.0000000   0.0000000
   63   0.0000000   0.0000000   0.0000000   0.0000000   0.0000000   0.0000000
   64   0.0000000   0.0000000   0.0000000   0.0000000   0.0000000   0.0000000
   65   0.0000000   0.0000000   0.0000000   0.0000000   0.0000000   0.0000000
   66   0.0000000   0.0000000   0.0000000   0.0000000   0.0000000   0.0000000
   67   0.0000000   0.0000000   0.0000000   0.0000000   0.0000000   0.0000000
   68   0.0000000   0.0000000   0.0000000   0.0000000   0.0000000   0.0000000
   69   0.0000000   0.0000000   0.0000000   0.0000000   0.0000000   0.0000000
   70   0.0000000   0.0000000   0.0000000   0.0000000   0.0000000   0.0000000
   71   0.0000000   0.0000000   0.0000000   0.0000000   0.0000000   0.0000000
   72   0.0000000   0.0000000   0.0000000   0.0000000   0.0000000   0.0000000
   73   0.0000000   0.0000000   0.0000000   0.0000000   0.0000000   0.0000000
   74   0.0001224   0.0569033   0.0064736   0.0769306   0.0563828   0.0000000
   75   0.0569033   0.4605526   0.2164999   0.5540060   0.4906629   0.0000000
   76   0.0064736   0.2164999   0.0613205   0.2680281   0.2024692   0.0000000
   77   0.0769306   0.5540060   0.2680281   0.6798923   0.6592826   0.0000000
   78   0.0563828   0.4906629   0.2024692   0.6592826   0.8830612   0.0000000
   79   0.0000000   0.0000000   0.0000000   0.0000000   0.0000000   0.3450030
   80   0.0000000   0.0000000   0.0000000   0.0000000   0.0000000   0.0000000
   81   0.1002560   0.4678941   0.3438993   0.4054610   0.1583492   0.0000000
   82   0.0000000   0.0000000   0.0000000   0.0000000   0.0000000   0.3131704
   83   0.0000000   0.0000000   0.0000000   0.0000000   0.0000000   0.0000000
   84   0.1089663   0.4258739   0.3555538   0.3345881   0.1036386   0.0000000
   85   0.0000000   0.0000000   0.0000000   0.0000000   0.0000000   0.4611953
   86   0.0000000   0.0000000   0.0000000   0.0000000   0.0000000   0.0000000
   87   0.1279623   0.6074551   0.4084365   0.6010863   0.2891852   0.0000000
   88   0.0000000   0.0000000   0.0000000   0.0000000   0.0000000   0.2861209
   89   0.0000000   0.0000000   0.0000000   0.0000000   0.0000000   0.0000000
   90   0.0472703   0.3615742   0.1664171   0.4562201   0.4412594   0.0000000
   91   0.0000000   0.0000000   0.0000000   0.0000000   0.0000000   0.0000000
   92   0.0000000   0.0000000   0.0000000   0.0000000   0.0000000   0.0000000
   93   0.0242489   0.1061652   0.1367503   0.0357151   0.0031816   0.0000000
   94   0.0000000   0.0000000   0.0000000   0.0000000   0.0000000   0.1225389
   95   0.0000000   0.0000000   0.0000000   0.0000000   0.0000000   0.0000000
   96   0.0000000   0.0000000   0.0000000   0.0000000   0.0000000   0.0000000
   97   0.0000000   0.0000000   0.0000000   0.0000000   0.0000000   0.0000000
   98   0.1886315   0.3343926   0.4735278   0.1720923   0.0221138   0.0000000
   99   0.0000000   0.0000000   0.0000000   0.0000000   0.0000000   0.4546547
  100   0.0000000   0.0000000   0.0000000   0.0000000   0.0000000   0.0000000
  101   0.0000000   0.0000000   0.0000000   0.0000000   0.0000000   0.0000000
  102   0.0000000   0.0000000   0.0000000   0.0000000   0.0000000   0.0000000
  103   0.1080671   0.3793617   0.3223993   0.3090218   0.0810803   0.0000000
  104   0.0000000   0.0000000   0.0000000   0.0000000   0.0000000   0.4916024
  105   0.0000000   0.0000000   0.0000000   0.0000000   0.0000000   0.0000000
  106   0.0000000   0.0000000   0.0000000   0.0000000   0.0000000   0.0000000
  107   0.0000000   0.0000000   0.0000000   0.0000000   0.0000000   0.0000000
  108   0.0000000   0.0000000   0.0000000   0.0000000   0.0000000   0.0000000
  109   0.1170659   0.0850571   0.2597946   0.0175440   0.0006043   0.0000000
  110   0.0000000   0.0000000   0.0000000   0.0000000   0.0000000   0.2108676
  111   0.0000000   0.0000000   0.0000000   0.0000000   0.0000000   0.0000000
  112   0.0000000   0.0000000   0.0000000   0.0000000   0.0000000  -0.0000000
  113   0.0000000   0.0000000   0.0000000   0.0000000   0.0000000   0.0000000
  114   0.0000000   0.0000000   0.0000000   0.0000000   0.0000000   0.0000000
  115   0.0000000   0.0000000   0.0000000   0.0000000   0.0000000   0.0000000
  116   0.2006721   0.2116719   0.4274486   0.0789188   0.0047673   0.0000000
  117   0.0000000   0.0000000   0.0000000   0.0000000   0.0000000   0.4566223
  118   0.0000000   0.0000000   0.0000000   0.0000000   0.0000000   0.0000000
  119   0.0000000   0.0000000   0.0000000   0.0000000   0.0000000   0.0000000
  120   0.0383095   0.3682219   0.1397035   0.5165860   0.8426155   0.0000000
  121   0.0243797   0.2494961   0.0896801   0.3595390   0.6808184   0.0000000
  122   0.0150027   0.1590584   0.0554371   0.2326694   0.4847264   0.0000000
  123   0.0000000   0.0000000   0.0000000   0.0000000   0.0000000   0.1629161
  124   0.0000000   0.0000000   0.0000000   0.0000000   0.0000000   0.0000000
  125   0.0224124   0.2016550   0.0809997   0.2744406   0.3712998   0.0000000
  126   0.0000000   0.0000000   0.0000000   0.0000000   0.0000000   0.0812134
  127   0.0000000   0.0000000   0.0000000   0.0000000   0.0000000   0.0000000
  128   0.0100208   0.0991843   0.0367060   0.1408426   0.2412440   0.0000000
  129   0.0000000   0.0000000   0.0000000   0.0000000   0.0000000   0.0373919
  130   0.0000000   0.0000000   0.0000000   0.0000000   0.0000000   0.0000000
  131   0.0043468   0.0453181   0.0160293   0.0658150   0.1301848   0.0000000
  132   0.0000000   0.0000000   0.0000000   0.0000000   0.0000000   0.0000000
  133   0.0000000   0.0000000   0.0000000   0.0000000   0.0000000   0.0000000
  134   0.0462319   0.2479288   0.1524075   0.2584858   0.1207838   0.0000000
  135   0.0000000   0.0000000   0.0000000   0.0000000   0.0000000   0.3270250
  136   0.0000000   0.0000000   0.0000000   0.0000000   0.0000000   0.0000000
  137   0.0000000   0.0000000   0.0000000   0.0000000   0.0000000   0.0000000
  138   0.0000000   0.0000000   0.0000000   0.0000000   0.0000000   0.0000000
  139   0.0166004   0.1208323   0.0580381   0.1482806   0.1204242   0.0000000
  140   0.0000000   0.0000000   0.0000000   0.0000000   0.0000000   0.1643820
  141   0.0000000   0.0000000   0.0000000   0.0000000   0.0000000   0.0000000
  142   0.0000000   0.0000000   0.0000000   0.0000000   0.0000000   0.0000000
  143   0.0000000   0.0000000   0.0000000   0.0000000   0.0000000   0.0000000
  144   0.0054415   0.0478993   0.0196120   0.0644767   0.0804120   0.0000000
  145   0.0000000   0.0000000   0.0000000   0.0000000   0.0000000   0.0667937
  146   0.0000000   0.0000000   0.0000000   0.0000000   0.0000000   0.0000000
            7           8           9          10          11          12
    1   0.0000000  -0.0000000   0.0000000   0.0000000  -0.0000000   0.0000000
    2   0.0000000  -0.0000000   0.0000000   0.0000000  -0.0000000   0.0000000
    3   0.0000000   0.0000000   0.0000000   0.0000000   0.0000000   0.0000000
    4   0.0000000   0.0000000   0.0000000   0.0000000   0.0000000   0.0000000
    5   0.0000000   0.0000000   0.0000000   0.0000000   0.0000000   0.0000000
    6   0.0000000   0.0000000   0.9480006   0.0000000   0.0000000   0.7497374
    7   1.0000000   0.0000000   0.0000000   0.9480006   0.0000000   0.0000000
    8   0.0000000   1.0000000   0.0000000   0.0000000   0.9480006   0.0000000
    9   0.0000000   0.0000000   1.0000000   0.0000000   0.0000000   0.6673368
   10   0.9480006   0.0000000   0.0000000   1.0000000   0.0000000   0.0000000
   11   0.0000000   0.9480006   0.0000000   0.0000000   1.0000000   0.0000000
   12   0.0000000   0.0000000   0.6673368   0.0000000   0.0000000   1.0000000
   13   0.7497374   0.0000000   0.0000000   0.6673368   0.0000000   0.0000000
   14   0.0000000   0.7497374   0.0000000   0.0000000   0.6673368   0.0000000
   15   0.0000000   0.0000000   0.2208111   0.0000000   0.0000000   0.6287657
   16   0.3414802   0.0000000   0.0000000   0.2208111   0.0000000   0.0000000
   17   0.0000000   0.3414802   0.0000000   0.0000000   0.2208111   0.0000000
   18   0.0000000   0.0000000   0.0000000   0.0000000   0.0000000   0.0000000
   19  -0.0000000   0.0000000   0.0000000   0.0000000   0.0000000   0.0000000
   20   0.0000000  -0.0000000   0.0000000   0.0000000   0.0000000   0.0000000
   21   0.0000000   0.0000000   0.0000000   0.0000000   0.0000000   0.0000000
   22   0.0000000   0.0000000   0.0000000   0.0000000   0.0000000   0.0000000
   23   0.0000000   0.0000000   0.0000000   0.0000000   0.0000000   0.0000000
   24  -0.0000000   0.0000000   0.0000000   0.0000000   0.0000000   0.0000000
   25   0.0000000  -0.0000000   0.0000000   0.0000000   0.0000000   0.0000000
   26   0.0000000   0.0000000   0.0000000   0.0000000   0.0000000   0.0000000
   27   0.0000000   0.0000000   0.0000000   0.0000000   0.0000000   0.0000000
   28   0.0000000   0.0000000   0.0000000   0.0000000   0.0000000   0.0000000
   29  -0.0000000   0.0000000   0.0000000  -0.0000000   0.0000000   0.0000000
   30   0.0000000  -0.0000000   0.0000000   0.0000000  -0.0000000   0.0000000
   31   0.0000000   0.0000000  -0.0000000   0.0000000   0.0000000  -0.0000000
   32   0.0000000   0.0000000   0.0000000   0.0000000   0.0000000   0.0000000
   33   0.0000000   0.0000000   0.0000000   0.0000000   0.0000000   0.0000000
   34   0.0000000   0.0000000   0.0000000   0.0000000   0.0000000   0.0000000
   35   0.0000000   0.0000000   0.0000000   0.0000000   0.0000000   0.0000000
   36   0.0000000  -0.0000000   0.0000000   0.0000000  -0.0000000   0.0000000
   37   0.0000000   0.0000000   0.0000000   0.0000000   0.0000000   0.0000000
   38   0.0000000   0.0000000   0.0000000   0.0000000   0.0000000   0.0000000
   39   0.0000000   0.0000000  -0.0000000   0.0000000   0.0000000   0.0000000
   40   0.0000000   0.0000000   0.0000000   0.0000000   0.0000000   0.0000000
   41   0.0000000   0.0000000   0.0000000   0.0000000   0.0000000   0.0000000
   42   0.0000000   0.0000000   0.0000000   0.0000000   0.0000000   0.0000000
   43   0.0000000  -0.0000000   0.0000000   0.0000000  -0.0000000   0.0000000
   44   0.0000000   0.0000000   0.0000000   0.0000000   0.0000000  -0.0000000
   45   0.0000000   0.0000000   0.0000000   0.0000000   0.0000000   0.0000000
   46   0.0000000   0.0000000   0.0000000   0.0000000   0.0000000   0.0000000
   47   0.0000000  -0.0000000   0.0000000   0.0000000   0.0000000   0.0000000
   48   0.0000000   0.0000000   0.0000000   0.0000000   0.0000000   0.0000000
   49   0.0000000  -0.0000000   0.0000000   0.0000000  -0.0000000   0.0000000
   50   0.0000000   0.0000000   0.1029860   0.0000000   0.0000000   0.3545558
   51   0.1793037   0.0000000   0.0000000   0.1029860   0.0000000   0.0000000
   52   0.0000000   0.1793037   0.0000000   0.0000000   0.1029860   0.0000000
   53   0.0000000   0.0000000   0.0456808   0.0000000   0.0000000   0.1750774
   54   0.0853986   0.0000000   0.0000000   0.0456808   0.0000000   0.0000000
   55   0.0000000   0.0853986   0.0000000   0.0000000   0.0456808   0.0000000
   56   0.0000000   0.0000000   0.0197359   0.0000000   0.0000000   0.0800975
   57   0.0383686   0.0000000   0.0000000   0.0197359   0.0000000   0.0000000
   58   0.0000000   0.0383686   0.0000000   0.0000000   0.0197359   0.0000000
   59   0.0000000   0.0000000   0.0000000   0.0000000   0.0000000   0.0000000
   60   0.0000000   0.0000000   0.0000000   0.0000000   0.0000000   0.0000000
   61   0.0000000   0.0000000   0.0000000   0.0000000   0.0000000   0.0000000
   62   0.0000000   0.0000000   0.0000000   0.0000000   0.0000000   0.0000000
   63   0.0000000   0.0000000   0.0000000   0.0000000   0.0000000   0.0000000
   64   0.0000000   0.0000000   0.0000000   0.0000000   0.0000000   0.0000000
   65   0.0000000   0.0000000   0.0000000   0.0000000   0.0000000   0.0000000
   66   0.0000000   0.0000000   0.0000000   0.0000000   0.0000000   0.0000000
   67   0.0000000   0.0000000   0.0000000   0.0000000   0.0000000   0.0000000
   68   0.0000000   0.0000000   0.0000000   0.0000000   0.0000000   0.0000000
   69   0.0000000   0.0000000   0.0000000   0.0000000   0.0000000   0.0000000
   70   0.0000000   0.0000000   0.0000000   0.0000000   0.0000000   0.0000000
   71   0.0000000   0.0000000   0.0000000   0.0000000   0.0000000   0.0000000
   72   0.0000000   0.0000000   0.0000000   0.0000000   0.0000000   0.0000000
   73   0.0000000   0.0000000   0.0000000   0.0000000   0.0000000   0.0000000
   74   0.0000000  -0.1002560   0.0000000   0.0000000  -0.1089663   0.0000000
   75   0.0000000  -0.4678941   0.0000000   0.0000000  -0.4258739   0.0000000
   76   0.0000000  -0.3438993   0.0000000   0.0000000  -0.3555538   0.0000000
   77   0.0000000  -0.4054610   0.0000000   0.0000000  -0.3345881   0.0000000
   78   0.0000000  -0.1583492   0.0000000   0.0000000  -0.1036386   0.0000000
   79   0.0000000   0.0000000   0.3131704   0.0000000   0.0000000   0.4611953
   80   0.3450030   0.0000000   0.0000000   0.3131704   0.0000000   0.0000000
   81   0.0000000  -0.2213510   0.0000000   0.0000000  -0.3224482   0.0000000
   82   0.0000000   0.0000000   0.3017162   0.0000000   0.0000000   0.3780566
   83   0.3131704   0.0000000   0.0000000   0.3017162   0.0000000   0.0000000
   84   0.0000000  -0.3224482   0.0000000   0.0000000  -0.4213578   0.0000000
   85   0.0000000   0.0000000   0.3780566   0.0000000   0.0000000   0.6890546
   86   0.4611953   0.0000000   0.0000000   0.3780566   0.0000000   0.0000000
   87   0.0000000   0.0188537   0.0000000   0.0000000  -0.0516054   0.0000000
   88   0.0000000   0.0000000   0.1817300   0.0000000   0.0000000   0.5331046
   89   0.2861209   0.0000000   0.0000000   0.1817300   0.0000000   0.0000000
   90   0.0000000   0.1849738   0.0000000   0.0000000   0.1109333   0.0000000
   91   0.0000000   0.0000000   0.0000000   0.0000000   0.0000000   0.0000000
   92   0.1225389   0.0000000   0.0000000   0.1564428   0.0000000   0.0000000
   93   0.0000000  -0.1323349   0.0000000   0.0000000  -0.1435075   0.0000000
   94   0.0000000   0.0000000   0.1564428   0.0000000   0.0000000   0.0672749
   95   0.0000000   0.0000000   0.0000000   0.0000000   0.0000000   0.0000000
   96   0.0000000   0.0000000   0.0000000   0.0000000   0.0000000   0.0000000
   97   0.4546547   0.0000000   0.0000000   0.5101720   0.0000000   0.0000000
   98   0.0000000  -0.0344252   0.0000000   0.0000000  -0.0575149   0.0000000
   99   0.0000000   0.0000000   0.5101720   0.0000000   0.0000000   0.3287645
  100   0.0000000   0.0000000   0.0000000   0.0000000   0.0000000   0.0000000
  101   0.0000000   0.0000000   0.0000000   0.0000000   0.0000000   0.0000000
  102   0.4916024   0.0000000   0.0000000   0.4631216   0.0000000   0.0000000
  103   0.0000000   0.3095849   0.0000000   0.0000000   0.2606594   0.0000000
  104   0.0000000   0.0000000   0.4631216   0.0000000   0.0000000   0.6048937
  105   0.0000000   0.0000000   0.0000000   0.0000000   0.0000000   0.0000000
  106   0.0000000   0.0000000   0.0000000   0.0000000   0.0000000   0.0000000
  107   0.0000000   0.0000000   0.0000000   0.0000000   0.0000000   0.0000000
  108   0.2108676   0.0000000   0.0000000   0.2399974   0.0000000   0.0000000
  109   0.0000000  -0.0907511   0.0000000   0.0000000  -0.0175285   0.0000000
  110   0.0000000   0.0000000   0.2399974   0.0000000   0.0000000   0.0454819
  111   0.0000000   0.0000000   0.0000000   0.0000000   0.0000000   0.0000000
  112   0.0000000   0.0000000   0.0000000   0.0000000   0.0000000  -0.0000000
  113  -0.0000000   0.0000000   0.0000000   0.0000000   0.0000000   0.0000000
  114   0.0000000   0.0000000   0.0000000   0.0000000   0.0000000   0.0000000
  115   0.4566223   0.0000000   0.0000000   0.5311567   0.0000000   0.0000000
  116   0.0000000   0.1944415   0.0000000   0.0000000   0.2388636   0.0000000
  117   0.0000000   0.0000000   0.5311567   0.0000000   0.0000000   0.2091483
  118   0.0000000   0.0000000   0.0000000   0.0000000   0.0000000   0.0000000
  119   0.0000000   0.0000000   0.0000000   0.0000000   0.0000000   0.0000000
  120   0.0000000  -0.0663363   0.0000000   0.0000000  -0.0386829   0.0000000
  121   0.0000000  -0.0239816   0.0000000   0.0000000  -0.0129675   0.0000000
  122   0.0000000  -0.0079216   0.0000000   0.0000000  -0.0041007   0.0000000
  123   0.0000000   0.0000000   0.0930442   0.0000000   0.0000000   0.3231331
  124   0.1629161   0.0000000   0.0000000   0.0930442   0.0000000   0.0000000
  125   0.0000000   0.1316897   0.0000000   0.0000000   0.0741528   0.0000000
  126   0.0000000   0.0000000   0.0433723   0.0000000   0.0000000   0.1666249
  127   0.0812134   0.0000000   0.0000000   0.0433723   0.0000000   0.0000000
  128   0.0000000   0.0730515   0.0000000   0.0000000   0.0388739   0.0000000
  129   0.0000000   0.0000000   0.0192253   0.0000000   0.0000000   0.0780737
  130   0.0373919   0.0000000   0.0000000   0.0192253   0.0000000   0.0000000
  131   0.0000000   0.0354637   0.0000000   0.0000000   0.0182174   0.0000000
  132   0.0000000   0.0000000   0.0000000   0.0000000   0.0000000   0.0000000
  133   0.3270250   0.0000000   0.0000000   0.2563226   0.0000000   0.0000000
  134   0.0000000   0.2805233   0.0000000   0.0000000   0.2110378   0.0000000
  135   0.0000000   0.0000000   0.2563226   0.0000000   0.0000000   0.5144813
  136   0.0000000   0.0000000   0.0000000   0.0000000   0.0000000   0.0000000
  137   0.0000000   0.0000000   0.0000000   0.0000000   0.0000000   0.0000000
  138   0.1643820   0.0000000   0.0000000   0.1081880   0.0000000   0.0000000
  139   0.0000000   0.1629621   0.0000000   0.0000000   0.1058580   0.0000000
  140   0.0000000   0.0000000   0.1081880   0.0000000   0.0000000   0.2992073
  141   0.0000000   0.0000000   0.0000000   0.0000000   0.0000000   0.0000000
  142   0.0000000   0.0000000   0.0000000   0.0000000   0.0000000   0.0000000
  143   0.0667937   0.0000000   0.0000000   0.0387810   0.0000000   0.0000000
  144   0.0000000   0.0713143   0.0000000   0.0000000   0.0412507   0.0000000
  145   0.0000000   0.0000000   0.0387810   0.0000000   0.0000000   0.1313180
  146   0.0000000   0.0000000   0.0000000   0.0000000   0.0000000   0.0000000
           13          14          15          16          17          18
    1   0.0000000  -0.0000000   0.0000000   0.0000000   0.0000000   0.0000000
    2   0.0000000   0.0000000   0.0000000   0.0000000  -0.0000000   0.0000000
    3   0.0000000   0.0000000   0.0000000   0.0000000   0.0000000   0.0000000
    4   0.0000000   0.0000000   0.0000000   0.0000000   0.0000000   0.0000000
    5   0.0000000   0.0000000   0.0000000   0.0000000   0.0000000   0.0000000
    6   0.0000000   0.0000000   0.3414802   0.0000000   0.0000000   0.0000000
    7   0.7497374   0.0000000   0.0000000   0.3414802   0.0000000   0.0000000
    8   0.0000000   0.7497374   0.0000000   0.0000000   0.3414802   0.0000000
    9   0.0000000   0.0000000   0.2208111   0.0000000   0.0000000   0.0000000
   10   0.6673368   0.0000000   0.0000000   0.2208111   0.0000000   0.0000000
   11   0.0000000   0.6673368   0.0000000   0.0000000   0.2208111   0.0000000
   12   0.0000000   0.0000000   0.6287657   0.0000000   0.0000000   0.0000000
   13   1.0000000   0.0000000   0.0000000   0.6287657   0.0000000   0.0000000
   14   0.0000000   1.0000000   0.0000000   0.0000000   0.6287657   0.0000000
   15   0.0000000   0.0000000   1.0000000   0.0000000   0.0000000   0.0000000
   16   0.6287657   0.0000000   0.0000000   1.0000000   0.0000000   0.0000000
   17   0.0000000   0.6287657   0.0000000   0.0000000   1.0000000   0.0000000
   18   0.0000000   0.0000000   0.0000000   0.0000000   0.0000000   1.0000000
   19   0.0000000   0.0000000   0.0000000   0.0000000   0.0000000   0.0000000
   20   0.0000000   0.0000000   0.0000000   0.0000000   0.0000000   0.0000000
   21   0.0000000   0.0000000   0.0000000   0.0000000   0.0000000   0.0000000
   22   0.0000000   0.0000000   0.0000000   0.0000000   0.0000000   0.0000000
   23   0.0000000   0.0000000   0.0000000   0.0000000   0.0000000   0.5203189
   24   0.0000000   0.0000000   0.0000000  -0.0000000   0.0000000   0.0000000
   25   0.0000000   0.0000000   0.0000000   0.0000000  -0.0000000   0.0000000
   26   0.0000000   0.0000000  -0.0000000   0.0000000   0.0000000   0.0000000
   27   0.0000000   0.0000000   0.0000000   0.0000000   0.0000000   0.0000000
   28   0.0000000   0.0000000   0.0000000   0.0000000   0.0000000   0.1263518
   29  -0.0000000   0.0000000   0.0000000   0.0000000   0.0000000   0.0000000
   30   0.0000000  -0.0000000   0.0000000   0.0000000   0.0000000   0.0000000
   31   0.0000000   0.0000000   0.0000000   0.0000000   0.0000000   0.0000000
   32   0.0000000   0.0000000   0.0000000   0.0000000   0.0000000   0.0000000
   33   0.0000000   0.0000000   0.0000000  -0.0000000   0.0000000   0.0000000
   34   0.0000000   0.0000000   0.0000000   0.0000000   0.0000000   0.0000000
   35   0.0000000   0.0000000   0.0000000  -0.0000000   0.0000000   0.0000000
   36   0.0000000  -0.0000000   0.0000000   0.0000000   0.0000000   0.0000000
   37   0.0000000   0.0000000  -0.0000000   0.0000000   0.0000000   0.0000000
   38   0.0000000   0.0000000   0.0000000   0.0000000   0.0000000   0.0000000
   39   0.0000000   0.0000000   0.0000000   0.0000000   0.0000000   0.0000000
   40  -0.0000000   0.0000000   0.0000000  -0.0000000   0.0000000   0.0000000
   41   0.0000000   0.0000000   0.0000000   0.0000000   0.0000000   0.0000000
   42  -0.0000000   0.0000000   0.0000000  -0.0000000   0.0000000   0.0000000
   43   0.0000000   0.0000000   0.0000000   0.0000000   0.0000000   0.0000000
   44   0.0000000   0.0000000  -0.0000000   0.0000000   0.0000000   0.0000000
   45   0.0000000   0.0000000   0.0000000   0.0000000   0.0000000   0.0000000
   46   0.0000000   0.0000000   0.0000000   0.0000000   0.0000000   0.0000000
   47   0.0000000   0.0000000   0.0000000   0.0000000   0.0000000   0.0000000
   48   0.0000000   0.0000000   0.0000000   0.0000000   0.0000000   0.0000000
   49   0.0000000   0.0000000   0.0000000   0.0000000   0.0000000   0.0000000
   50   0.0000000   0.0000000   0.8630965   0.0000000   0.0000000   0.0000000
   51   0.3545558   0.0000000   0.0000000   0.8630965   0.0000000   0.0000000
   52   0.0000000   0.3545558   0.0000000   0.0000000   0.8630965   0.0000000
   53   0.0000000   0.0000000   0.5724334   0.0000000   0.0000000   0.0000000
   54   0.1750774   0.0000000   0.0000000   0.5724334   0.0000000   0.0000000
   55   0.0000000   0.1750774   0.0000000   0.0000000   0.5724334   0.0000000
   56   0.0000000   0.0000000   0.3132068   0.0000000   0.0000000   0.0000000
   57   0.0800975   0.0000000   0.0000000   0.3132068   0.0000000   0.0000000
   58   0.0000000   0.0800975   0.0000000   0.0000000   0.3132068   0.0000000
   59   0.0000000   0.0000000   0.0000000   0.0000000   0.0000000   0.0436242
   60   0.0000000   0.0000000   0.0000000   0.0000000   0.0000000   0.0000000
   61   0.0000000   0.0000000   0.0000000   0.0000000   0.0000000   0.0000000
   62   0.0000000   0.0000000   0.0000000   0.0000000   0.0000000   0.0000000
   63   0.0000000   0.0000000   0.0000000   0.0000000   0.0000000   0.0000000
   64   0.0000000   0.0000000   0.0000000   0.0000000   0.0000000   0.0140110
   65   0.0000000   0.0000000   0.0000000   0.0000000   0.0000000   0.0000000
   66   0.0000000   0.0000000   0.0000000   0.0000000   0.0000000   0.0000000
   67   0.0000000   0.0000000   0.0000000   0.0000000   0.0000000   0.0000000
   68   0.0000000   0.0000000   0.0000000   0.0000000   0.0000000   0.0000000
   69   0.0000000   0.0000000   0.0000000   0.0000000   0.0000000   0.0043323
   70   0.0000000   0.0000000   0.0000000   0.0000000   0.0000000   0.0000000
   71   0.0000000   0.0000000   0.0000000   0.0000000   0.0000000   0.0000000
   72   0.0000000   0.0000000   0.0000000   0.0000000   0.0000000   0.0000000
   73   0.0000000   0.0000000   0.0000000   0.0000000   0.0000000   0.0000000
   74   0.0000000  -0.1279623   0.0000000   0.0000000  -0.0472703   0.0000000
   75   0.0000000  -0.6074551   0.0000000   0.0000000  -0.3615742   0.0000000
   76   0.0000000  -0.4084365   0.0000000   0.0000000  -0.1664171   0.0000000
   77   0.0000000  -0.6010863   0.0000000   0.0000000  -0.4562201   0.0000000
   78   0.0000000  -0.2891852   0.0000000   0.0000000  -0.4412594   0.0000000
   79   0.0000000   0.0000000   0.2861209   0.0000000   0.0000000   0.0000000
   80   0.4611953   0.0000000   0.0000000   0.2861209   0.0000000   0.0000000
   81   0.0000000   0.0188537   0.0000000   0.0000000   0.1849738   0.0000000
   82   0.0000000   0.0000000   0.1817300   0.0000000   0.0000000   0.0000000
   83   0.3780566   0.0000000   0.0000000   0.1817300   0.0000000   0.0000000
   84   0.0000000  -0.0516054   0.0000000   0.0000000   0.1109333   0.0000000
   85   0.0000000   0.0000000   0.5331046   0.0000000   0.0000000   0.0000000
   86   0.6890546   0.0000000   0.0000000   0.5331046   0.0000000   0.0000000
   87   0.0000000   0.1757989   0.0000000   0.0000000   0.3571363   0.0000000
   88   0.0000000   0.0000000   0.8994166   0.0000000   0.0000000   0.0000000
   89   0.5331046   0.0000000   0.0000000   0.8994166   0.0000000   0.0000000
   90   0.0000000   0.3571363   0.0000000   0.0000000   0.7087241   0.0000000
   91   0.0000000   0.0000000   0.0000000   0.0000000   0.0000000   0.0281262
   92   0.0672749   0.0000000   0.0000000   0.0081256   0.0000000   0.0000000
   93   0.0000000   0.0252839   0.0000000   0.0000000   0.0074507   0.0000000
   94   0.0000000   0.0000000   0.0081256   0.0000000   0.0000000   0.0000000
   95   0.0000000   0.0000000   0.0000000   0.0000000   0.0000000   0.0000000
   96   0.0000000   0.0000000   0.0000000   0.0000000   0.0000000   0.1074098
   97   0.3287645   0.0000000   0.0000000   0.0584705   0.0000000   0.0000000
   98   0.0000000   0.1728912   0.0000000   0.0000000   0.0545579   0.0000000
   99   0.0000000   0.0000000   0.0584705   0.0000000   0.0000000   0.0000000
  100   0.0000000   0.0000000   0.0000000   0.0000000   0.0000000   0.0000000
  101   0.0000000   0.0000000   0.0000000   0.0000000   0.0000000   0.0695180
  102   0.6048937   0.0000000   0.0000000   0.2320302   0.0000000   0.0000000
  103   0.0000000   0.4556249   0.0000000   0.0000000   0.2250590   0.0000000
  104   0.0000000   0.0000000   0.2320302   0.0000000   0.0000000   0.0000000
  105   0.0000000   0.0000000   0.0000000   0.0000000   0.0000000   0.0000000
  106   0.0000000   0.0000000   0.0000000   0.0000000   0.0000000   0.0000000
  107   0.0000000   0.0000000   0.0000000   0.0000000   0.0000000   0.1416191
  108   0.0454819   0.0000000   0.0000000   0.0018883   0.0000000   0.0000000
  109   0.0000000   0.0318129   0.0000000   0.0000000   0.0019999   0.0000000
  110   0.0000000   0.0000000   0.0018883   0.0000000   0.0000000   0.0000000
  111   0.0000000   0.0000000   0.0000000   0.0000000   0.0000000   0.0000000
  112   0.0000000   0.0000000  -0.0000000   0.0000000   0.0000000   0.0000000
  113  -0.0000000   0.0000000   0.0000000  -0.0000000   0.0000000   0.0000000
  114   0.0000000   0.0000000   0.0000000   0.0000000   0.0000000   0.2259944
  115   0.2091483   0.0000000   0.0000000   0.0157060   0.0000000   0.0000000
  116   0.0000000   0.1698514   0.0000000   0.0000000   0.0168401   0.0000000
  117   0.0000000   0.0000000   0.0157060   0.0000000   0.0000000   0.0000000
  118   0.0000000   0.0000000   0.0000000   0.0000000   0.0000000   0.0000000
  119   0.0000000   0.0000000   0.0000000   0.0000000   0.0000000   0.0000000
  120   0.0000000  -0.1300925   0.0000000   0.0000000  -0.2986234   0.0000000
  121   0.0000000  -0.0489096   0.0000000   0.0000000  -0.1525428   0.0000000
  122   0.0000000  -0.0164895   0.0000000   0.0000000  -0.0625688   0.0000000
  123   0.0000000   0.0000000   0.8042047   0.0000000   0.0000000   0.0000000
  124   0.3231331   0.0000000   0.0000000   0.8042047   0.0000000   0.0000000
  125   0.0000000   0.2631586   0.0000000   0.0000000   0.6905342   0.0000000
  126   0.0000000   0.0000000   0.5486676   0.0000000   0.0000000   0.0000000
  127   0.1666249   0.0000000   0.0000000   0.5486676   0.0000000   0.0000000
  128   0.0000000   0.1501346   0.0000000   0.0000000   0.5021367   0.0000000
  129   0.0000000   0.0000000   0.3059147   0.0000000   0.0000000   0.0000000
  130   0.0780737   0.0000000   0.0000000   0.3059147   0.0000000   0.0000000
  131   0.0000000   0.0740776   0.0000000   0.0000000   0.2915015   0.0000000
  132   0.0000000   0.0000000   0.0000000   0.0000000   0.0000000   0.0319390
  133   0.5144813   0.0000000   0.0000000   0.3736665   0.0000000   0.0000000
  134   0.0000000   0.4593573   0.0000000   0.0000000   0.3760416   0.0000000
  135   0.0000000   0.0000000   0.3736665   0.0000000   0.0000000   0.0000000
  136   0.0000000   0.0000000   0.0000000   0.0000000   0.0000000   0.0000000
  137   0.0000000   0.0000000   0.0000000   0.0000000   0.0000000   0.0119469
  138   0.2992073   0.0000000   0.0000000   0.4074475   0.0000000   0.0000000
  139   0.0000000   0.2992883   0.0000000   0.0000000   0.4271227   0.0000000
  140   0.0000000   0.0000000   0.4074475   0.0000000   0.0000000   0.0000000
  141   0.0000000   0.0000000   0.0000000   0.0000000   0.0000000   0.0000000
  142   0.0000000   0.0000000   0.0000000   0.0000000   0.0000000   0.0039969
  143   0.1313180   0.0000000   0.0000000   0.2952541   0.0000000   0.0000000
  144   0.0000000   0.1404933   0.0000000   0.0000000   0.3208588   0.0000000
  145   0.0000000   0.0000000   0.2952541   0.0000000   0.0000000   0.0000000
  146   0.0000000   0.0000000   0.0000000   0.0000000   0.0000000   0.0000000
           19          20          21          22          23          24
    1   0.0000000   0.0000000   0.0000000   0.0000000   0.0000000   0.0000000
    2   0.0000000   0.0000000   0.0000000   0.0000000   0.0000000   0.0000000
    3   0.0000000   0.0000000   0.0000000   0.0000000   0.0000000   0.0000000
    4   0.0000000   0.0000000   0.0000000   0.0000000   0.0000000   0.0000000
    5   0.0000000   0.0000000   0.0000000   0.0000000   0.0000000   0.0000000
    6   0.0000000   0.0000000  -0.0000000   0.0000000   0.0000000   0.0000000
    7  -0.0000000   0.0000000   0.0000000   0.0000000   0.0000000  -0.0000000
    8   0.0000000  -0.0000000   0.0000000   0.0000000   0.0000000   0.0000000
    9   0.0000000   0.0000000   0.0000000   0.0000000   0.0000000   0.0000000
   10   0.0000000   0.0000000   0.0000000   0.0000000   0.0000000   0.0000000
   11   0.0000000   0.0000000   0.0000000   0.0000000   0.0000000   0.0000000
   12   0.0000000   0.0000000   0.0000000   0.0000000   0.0000000   0.0000000
   13   0.0000000   0.0000000   0.0000000   0.0000000   0.0000000   0.0000000
   14   0.0000000   0.0000000   0.0000000   0.0000000   0.0000000   0.0000000
   15   0.0000000   0.0000000   0.0000000   0.0000000   0.0000000   0.0000000
   16   0.0000000   0.0000000   0.0000000   0.0000000   0.0000000  -0.0000000
   17   0.0000000   0.0000000   0.0000000   0.0000000   0.0000000   0.0000000
   18   0.0000000   0.0000000   0.0000000   0.0000000   0.5203189   0.0000000
   19   1.0000000   0.0000000   0.0000000   0.0000000   0.0000000   0.5203189
   20   0.0000000   1.0000000   0.0000000   0.0000000   0.0000000   0.0000000
   21   0.0000000   0.0000000   1.0000000   0.0000000   0.0000000   0.0000000
   22   0.0000000   0.0000000   0.0000000   1.0000000   0.0000000   0.0000000
   23   0.0000000   0.0000000   0.0000000   0.0000000   1.0000000   0.0000000
   24   0.5203189   0.0000000   0.0000000   0.0000000   0.0000000   1.0000000
   25   0.0000000   0.5203189   0.0000000   0.0000000   0.0000000   0.0000000
   26   0.0000000   0.0000000   0.5203189   0.0000000   0.0000000   0.0000000
   27   0.0000000   0.0000000   0.0000000   0.5203189   0.0000000   0.0000000
   28   0.0000000   0.0000000   0.0000000   0.0000000   0.5861330   0.0000000
   29   0.1263518   0.0000000   0.0000000   0.0000000   0.0000000   0.5861330
   30   0.0000000   0.1263518   0.0000000   0.0000000   0.0000000   0.0000000
   31   0.0000000   0.0000000   0.1263518   0.0000000   0.0000000   0.0000000
   32   0.0000000   0.0000000   0.0000000   0.1263518   0.0000000   0.0000000
   33   0.0000000   0.0000000   0.0000000   0.0000000   0.0000000   0.0000000
   34   0.0000000   0.0000000   0.0000000   0.0000000   0.0000000   0.0000000
   35   0.0000000   0.0000000   0.0000000   0.0000000   0.0000000   0.0000000
   36   0.0000000   0.0000000   0.0000000   0.0000000   0.0000000   0.0000000
   37   0.0000000   0.0000000   0.0000000   0.0000000   0.0000000   0.0000000
   38   0.0000000   0.0000000   0.0000000   0.0000000   0.0000000   0.0000000
   39   0.0000000   0.0000000  -0.0000000   0.0000000   0.0000000   0.0000000
   40   0.0000000   0.0000000   0.0000000   0.0000000   0.0000000   0.0000000
   41   0.0000000   0.0000000   0.0000000   0.0000000   0.0000000   0.0000000
   42   0.0000000   0.0000000   0.0000000   0.0000000   0.0000000   0.0000000
   43   0.0000000   0.0000000   0.0000000   0.0000000   0.0000000   0.0000000
   44   0.0000000   0.0000000   0.0000000   0.0000000   0.0000000   0.0000000
   45   0.0000000   0.0000000   0.0000000   0.0000000   0.0000000   0.0000000
   46   0.0000000   0.0000000   0.0000000   0.0000000   0.0000000   0.0000000
   47   0.0000000   0.0000000   0.0000000   0.0000000   0.0000000   0.0000000
   48   0.0000000   0.0000000   0.0000000   0.0000000   0.0000000   0.0000000
   49   0.0000000   0.0000000   0.0000000   0.0000000   0.0000000   0.0000000
   50   0.0000000   0.0000000   0.0000000   0.0000000   0.0000000   0.0000000
   51   0.0000000   0.0000000   0.0000000   0.0000000   0.0000000  -0.0000000
   52   0.0000000   0.0000000   0.0000000   0.0000000   0.0000000   0.0000000
   53   0.0000000   0.0000000   0.0000000   0.0000000   0.0000000   0.0000000
   54   0.0000000   0.0000000   0.0000000   0.0000000   0.0000000   0.0000000
   55   0.0000000   0.0000000   0.0000000   0.0000000   0.0000000   0.0000000
   56   0.0000000   0.0000000   0.0000000   0.0000000   0.0000000   0.0000000
   57   0.0000000   0.0000000   0.0000000   0.0000000   0.0000000   0.0000000
   58   0.0000000   0.0000000   0.0000000   0.0000000   0.0000000   0.0000000
   59   0.0000000   0.0000000   0.0000000   0.0000000   0.2745188   0.0000000
   60   0.0436242   0.0000000   0.0000000   0.0000000   0.0000000   0.2745188
   61   0.0000000   0.0436242   0.0000000   0.0000000   0.0000000   0.0000000
   62   0.0000000   0.0000000   0.0436242   0.0000000   0.0000000   0.0000000
   63   0.0000000   0.0000000   0.0000000   0.0436242   0.0000000   0.0000000
   64   0.0000000   0.0000000   0.0000000   0.0000000   0.1049504   0.0000000
   65   0.0140110   0.0000000   0.0000000   0.0000000   0.0000000   0.1049504
   66   0.0000000   0.0140110   0.0000000   0.0000000   0.0000000   0.0000000
   67   0.0000000   0.0000000   0.0140110   0.0000000   0.0000000   0.0000000
   68   0.0000000   0.0000000   0.0000000   0.0140110   0.0000000   0.0000000
   69   0.0000000   0.0000000   0.0000000   0.0000000   0.0356352   0.0000000
   70   0.0043323   0.0000000   0.0000000   0.0000000   0.0000000   0.0356352
   71   0.0000000   0.0043323   0.0000000   0.0000000   0.0000000   0.0000000
   72   0.0000000   0.0000000   0.0043323   0.0000000   0.0000000   0.0000000
   73   0.0000000   0.0000000   0.0000000   0.0043323   0.0000000   0.0000000
   74   0.0000000   0.0242489   0.0000000   0.0000000   0.0000000   0.0000000
   75   0.0000000   0.1061652   0.0000000   0.0000000   0.0000000   0.0000000
   76   0.0000000   0.1367503   0.0000000   0.0000000   0.0000000   0.0000000
   77   0.0000000   0.0357151   0.0000000   0.0000000   0.0000000   0.0000000
   78   0.0000000   0.0031816   0.0000000   0.0000000   0.0000000   0.0000000
   79   0.0000000   0.0000000  -0.1225389   0.0000000   0.0000000   0.0000000
   80  -0.1225389   0.0000000   0.0000000   0.0000000   0.0000000  -0.4546547
   81   0.0000000   0.1323349   0.0000000   0.0000000   0.0000000   0.0000000
   82   0.0000000   0.0000000  -0.1564428   0.0000000   0.0000000   0.0000000
   83  -0.1564428   0.0000000   0.0000000   0.0000000   0.0000000  -0.5101720
   84   0.0000000   0.1435075   0.0000000   0.0000000   0.0000000   0.0000000
   85   0.0000000   0.0000000  -0.0672749   0.0000000   0.0000000   0.0000000
   86  -0.0672749   0.0000000   0.0000000   0.0000000   0.0000000  -0.3287645
   87   0.0000000  -0.0252839   0.0000000   0.0000000   0.0000000   0.0000000
   88   0.0000000   0.0000000  -0.0081256   0.0000000   0.0000000   0.0000000
   89  -0.0081256   0.0000000   0.0000000   0.0000000   0.0000000  -0.0584705
   90   0.0000000  -0.0074507   0.0000000   0.0000000   0.0000000   0.0000000
   91   0.0000000   0.0000000   0.0000000   0.0000000   0.1074098   0.0000000
   92  -0.1727539   0.0000000   0.0000000   0.0000000   0.0000000  -0.2315305
   93   0.0000000   0.2385220   0.0000000   0.0000000   0.0000000   0.0000000
   94   0.0000000   0.0000000  -0.1727539   0.0000000   0.0000000   0.0000000
   95   0.0000000   0.0000000   0.0000000   0.0281262   0.0000000   0.0000000
   96   0.0000000   0.0000000   0.0000000   0.0000000   0.3632766   0.0000000
   97  -0.2315305   0.0000000   0.0000000   0.0000000   0.0000000  -0.3724244
   98   0.0000000   0.0120073   0.0000000   0.0000000   0.0000000   0.0000000
   99   0.0000000   0.0000000  -0.2315305   0.0000000   0.0000000   0.0000000
  100   0.0000000   0.0000000   0.0000000   0.1074098   0.0000000   0.0000000
  101   0.0000000   0.0000000   0.0000000   0.0000000   0.3579227   0.0000000
  102  -0.0135538   0.0000000   0.0000000   0.0000000   0.0000000   0.0048465
  103   0.0000000  -0.0081550   0.0000000   0.0000000   0.0000000   0.0000000
  104   0.0000000   0.0000000  -0.0135538   0.0000000   0.0000000   0.0000000
  105   0.0000000   0.0000000   0.0000000   0.0695180   0.0000000   0.0000000
  106   0.0000000   0.0000000   0.0000000   0.0000000   0.0000000   0.0000000
  107   0.0000000   0.0000000   0.0000000   0.0000000   0.2332890   0.0000000
  108  -0.3299256   0.0000000   0.0000000   0.0000000   0.0000000  -0.1230844
  109   0.0000000   0.1520296   0.0000000   0.0000000   0.0000000   0.0000000
  110   0.0000000   0.0000000  -0.3299256   0.0000000   0.0000000   0.0000000
  111   0.0000000   0.0000000   0.0000000   0.1416191   0.0000000   0.0000000
  112   0.0000000   0.0000000  -0.0000000   0.0000000   0.0000000   0.0000000
  113   0.0000000   0.0000000   0.0000000   0.0000000   0.0000000   0.0000000
  114   0.0000000   0.0000000   0.0000000   0.0000000   0.5665668   0.0000000
  115  -0.0824056   0.0000000   0.0000000   0.0000000   0.0000000   0.0824490
  116   0.0000000   0.0060411   0.0000000   0.0000000   0.0000000   0.0000000
  117   0.0000000   0.0000000  -0.0824056   0.0000000   0.0000000   0.0000000
  118   0.0000000   0.0000000   0.0000000   0.2259944   0.0000000   0.0000000
  119   0.0000000   0.0000000  -0.0000000   0.0000000   0.0000000   0.0000000
  120   0.0000000   0.0005648   0.0000000   0.0000000   0.0000000   0.0000000
  121   0.0000000   0.0000919   0.0000000   0.0000000   0.0000000   0.0000000
  122   0.0000000   0.0000143   0.0000000   0.0000000   0.0000000   0.0000000
  123   0.0000000   0.0000000  -0.0019892   0.0000000   0.0000000   0.0000000
  124  -0.0019892   0.0000000   0.0000000   0.0000000   0.0000000  -0.0159592
  125   0.0000000  -0.0020569   0.0000000   0.0000000   0.0000000   0.0000000
  126   0.0000000   0.0000000  -0.0004519   0.0000000   0.0000000   0.0000000
  127  -0.0004519   0.0000000   0.0000000   0.0000000   0.0000000  -0.0038485
  128   0.0000000  -0.0004943   0.0000000   0.0000000   0.0000000   0.0000000
  129   0.0000000   0.0000000  -0.0000988   0.0000000   0.0000000   0.0000000
  130  -0.0000988   0.0000000   0.0000000   0.0000000   0.0000000  -0.0008681
  131   0.0000000  -0.0001111   0.0000000   0.0000000   0.0000000   0.0000000
  132   0.0000000   0.0000000   0.0000000   0.0000000   0.2073088   0.0000000
  133   0.0120229   0.0000000   0.0000000   0.0000000   0.0000000   0.0908799
  134   0.0000000   0.0095239   0.0000000   0.0000000   0.0000000   0.0000000
  135   0.0000000   0.0000000   0.0120229   0.0000000   0.0000000   0.0000000
  136   0.0000000   0.0000000   0.0000000   0.0319390   0.0000000   0.0000000
  137   0.0000000   0.0000000   0.0000000   0.0000000   0.0902536   0.0000000
  138   0.0081390   0.0000000   0.0000000   0.0000000   0.0000000   0.0630214
  139   0.0000000   0.0072742   0.0000000   0.0000000   0.0000000   0.0000000
  140   0.0000000   0.0000000   0.0081390   0.0000000   0.0000000   0.0000000
  141   0.0000000   0.0000000   0.0000000   0.0119469   0.0000000   0.0000000
  142   0.0000000   0.0000000   0.0000000   0.0000000   0.0329498   0.0000000
  143   0.0033527   0.0000000   0.0000000   0.0000000   0.0000000   0.0277865
  144   0.0000000   0.0031726   0.0000000   0.0000000   0.0000000   0.0000000
  145   0.0000000   0.0000000   0.0033527   0.0000000   0.0000000   0.0000000
  146   0.0000000   0.0000000   0.0000000   0.0039969   0.0000000   0.0000000
           25          26          27          28          29          30
    1   0.0000000   0.0000000   0.0000000   0.0000000   0.0000000   0.0000000
    2   0.0000000   0.0000000   0.0000000   0.0000000   0.0000000   0.0000000
    3   0.0000000   0.0000000   0.0000000   0.0000000   0.0000000   0.0000000
    4   0.0000000   0.0000000   0.0000000   0.0000000   0.0000000   0.0000000
    5   0.0000000   0.0000000   0.0000000   0.0000000   0.0000000   0.0000000
    6   0.0000000  -0.0000000   0.0000000   0.0000000   0.0000000   0.0000000
    7   0.0000000   0.0000000   0.0000000   0.0000000  -0.0000000   0.0000000
    8  -0.0000000   0.0000000   0.0000000   0.0000000   0.0000000  -0.0000000
    9   0.0000000   0.0000000   0.0000000   0.0000000   0.0000000   0.0000000
   10   0.0000000   0.0000000   0.0000000   0.0000000  -0.0000000   0.0000000
   11   0.0000000   0.0000000   0.0000000   0.0000000   0.0000000  -0.0000000
   12   0.0000000   0.0000000   0.0000000   0.0000000   0.0000000   0.0000000
   13   0.0000000   0.0000000   0.0000000   0.0000000  -0.0000000   0.0000000
   14   0.0000000   0.0000000   0.0000000   0.0000000   0.0000000  -0.0000000
   15   0.0000000  -0.0000000   0.0000000   0.0000000   0.0000000   0.0000000
   16   0.0000000   0.0000000   0.0000000   0.0000000   0.0000000   0.0000000
   17  -0.0000000   0.0000000   0.0000000   0.0000000   0.0000000   0.0000000
   18   0.0000000   0.0000000   0.0000000   0.1263518   0.0000000   0.0000000
   19   0.0000000   0.0000000   0.0000000   0.0000000   0.1263518   0.0000000
   20   0.5203189   0.0000000   0.0000000   0.0000000   0.0000000   0.1263518
   21   0.0000000   0.5203189   0.0000000   0.0000000   0.0000000   0.0000000
   22   0.0000000   0.0000000   0.5203189   0.0000000   0.0000000   0.0000000
   23   0.0000000   0.0000000   0.0000000   0.5861330   0.0000000   0.0000000
   24   0.0000000   0.0000000   0.0000000   0.0000000   0.5861330   0.0000000
   25   1.0000000   0.0000000   0.0000000   0.0000000   0.0000000   0.5861330
   26   0.0000000   1.0000000   0.0000000   0.0000000   0.0000000   0.0000000
   27   0.0000000   0.0000000   1.0000000   0.0000000   0.0000000   0.0000000
   28   0.0000000   0.0000000   0.0000000   1.0000000   0.0000000   0.0000000
   29   0.0000000   0.0000000   0.0000000   0.0000000   1.0000000   0.0000000
   30   0.5861330   0.0000000   0.0000000   0.0000000   0.0000000   1.0000000
   31   0.0000000   0.5861330   0.0000000   0.0000000   0.0000000   0.0000000
   32   0.0000000   0.0000000   0.5861330   0.0000000   0.0000000   0.0000000
   33   0.0000000   0.0000000   0.0000000   0.0000000   0.0000000   0.0000000
   34   0.0000000   0.0000000   0.0000000   0.0000000   0.0000000   0.0000000
   35   0.0000000   0.0000000   0.0000000   0.0000000   0.0000000   0.0000000
   36   0.0000000   0.0000000   0.0000000   0.0000000   0.0000000   0.0000000
   37   0.0000000   0.0000000   0.0000000   0.0000000   0.0000000   0.0000000
   38   0.0000000   0.0000000   0.0000000   0.0000000   0.0000000   0.0000000
   39   0.0000000   0.0000000   0.0000000   0.0000000   0.0000000   0.0000000
   40   0.0000000   0.0000000   0.0000000   0.0000000   0.0000000   0.0000000
   41   0.0000000   0.0000000   0.0000000   0.0000000   0.0000000   0.0000000
   42   0.0000000   0.0000000   0.0000000   0.0000000   0.0000000   0.0000000
   43   0.0000000   0.0000000   0.0000000   0.0000000   0.0000000   0.0000000
   44   0.0000000   0.0000000   0.0000000   0.0000000   0.0000000   0.0000000
   45   0.0000000   0.0000000   0.0000000   0.0000000   0.0000000   0.0000000
   46   0.0000000   0.0000000   0.0000000   0.0000000   0.0000000   0.0000000
   47   0.0000000   0.0000000   0.0000000   0.0000000   0.0000000   0.0000000
   48   0.0000000   0.0000000   0.0000000   0.0000000   0.0000000   0.0000000
   49   0.0000000   0.0000000   0.0000000   0.0000000   0.0000000   0.0000000
   50   0.0000000  -0.0000000   0.0000000   0.0000000   0.0000000   0.0000000
   51   0.0000000   0.0000000   0.0000000   0.0000000   0.0000000   0.0000000
   52  -0.0000000   0.0000000   0.0000000   0.0000000   0.0000000   0.0000000
   53   0.0000000   0.0000000   0.0000000   0.0000000   0.0000000   0.0000000
   54   0.0000000   0.0000000   0.0000000   0.0000000  -0.0000000   0.0000000
   55   0.0000000   0.0000000   0.0000000   0.0000000   0.0000000  -0.0000000
   56   0.0000000   0.0000000   0.0000000   0.0000000   0.0000000   0.0000000
   57   0.0000000   0.0000000   0.0000000   0.0000000   0.0000000   0.0000000
   58   0.0000000   0.0000000   0.0000000   0.0000000   0.0000000   0.0000000
   59   0.0000000   0.0000000   0.0000000   0.8137352   0.0000000   0.0000000
   60   0.0000000   0.0000000   0.0000000   0.0000000   0.8137352   0.0000000
   61   0.2745188   0.0000000   0.0000000   0.0000000   0.0000000   0.8137352
   62   0.0000000   0.2745188   0.0000000   0.0000000   0.0000000   0.0000000
   63   0.0000000   0.0000000   0.2745188   0.0000000   0.0000000   0.0000000
   64   0.0000000   0.0000000   0.0000000   0.4579467   0.0000000   0.0000000
   65   0.0000000   0.0000000   0.0000000   0.0000000   0.4579467   0.0000000
   66   0.1049504   0.0000000   0.0000000   0.0000000   0.0000000   0.4579467
   67   0.0000000   0.1049504   0.0000000   0.0000000   0.0000000   0.0000000
   68   0.0000000   0.0000000   0.1049504   0.0000000   0.0000000   0.0000000
   69   0.0000000   0.0000000   0.0000000   0.1968628   0.0000000   0.0000000
   70   0.0000000   0.0000000   0.0000000   0.0000000   0.1968628   0.0000000
   71   0.0356352   0.0000000   0.0000000   0.0000000   0.0000000   0.1968628
   72   0.0000000   0.0356352   0.0000000   0.0000000   0.0000000   0.0000000
   73   0.0000000   0.0000000   0.0356352   0.0000000   0.0000000   0.0000000
   74   0.1886315   0.0000000   0.0000000   0.0000000   0.0000000   0.1080671
   75   0.3343926   0.0000000   0.0000000   0.0000000   0.0000000   0.3793617
   76   0.4735278   0.0000000   0.0000000   0.0000000   0.0000000   0.3223993
   77   0.1720923   0.0000000   0.0000000   0.0000000   0.0000000   0.3090218
   78   0.0221138   0.0000000   0.0000000   0.0000000   0.0000000   0.0810803
   79   0.0000000  -0.4546547   0.0000000   0.0000000   0.0000000   0.0000000
   80   0.0000000   0.0000000   0.0000000   0.0000000  -0.4916024   0.0000000
   81   0.0344252   0.0000000   0.0000000   0.0000000   0.0000000  -0.3095849
   82   0.0000000  -0.5101720   0.0000000   0.0000000   0.0000000   0.0000000
   83   0.0000000   0.0000000   0.0000000   0.0000000  -0.4631216   0.0000000
   84   0.0575149   0.0000000   0.0000000   0.0000000   0.0000000  -0.2606594
   85   0.0000000  -0.3287645   0.0000000   0.0000000   0.0000000   0.0000000
   86   0.0000000   0.0000000   0.0000000   0.0000000  -0.6048937   0.0000000
   87  -0.1728912   0.0000000   0.0000000   0.0000000   0.0000000  -0.4556249
   88   0.0000000  -0.0584705   0.0000000   0.0000000   0.0000000   0.0000000
   89   0.0000000   0.0000000   0.0000000   0.0000000  -0.2320302   0.0000000
   90  -0.0545579   0.0000000   0.0000000   0.0000000   0.0000000  -0.2250590
   91   0.0000000   0.0000000   0.0000000   0.0695180   0.0000000   0.0000000
   92   0.0000000   0.0000000   0.0000000   0.0000000  -0.0135538   0.0000000
   93   0.0120073   0.0000000   0.0000000   0.0000000   0.0000000  -0.0081550
   94   0.0000000  -0.2315305   0.0000000   0.0000000   0.0000000   0.0000000
   95   0.0000000   0.0000000   0.1074098   0.0000000   0.0000000   0.0000000
   96   0.0000000   0.0000000   0.0000000   0.3579227   0.0000000   0.0000000
   97   0.0000000   0.0000000   0.0000000   0.0000000   0.0048465   0.0000000
   98  -0.1210154   0.0000000   0.0000000   0.0000000   0.0000000   0.0032529
   99   0.0000000  -0.3724244   0.0000000   0.0000000   0.0000000   0.0000000
  100   0.0000000   0.0000000   0.3632766   0.0000000   0.0000000   0.0000000
  101   0.0000000   0.0000000   0.0000000   0.7217941   0.0000000   0.0000000
  102   0.0000000   0.0000000   0.0000000   0.0000000   0.2511622   0.0000000
  103   0.0032529   0.0000000   0.0000000   0.0000000   0.0000000   0.1965737
  104   0.0000000   0.0048465   0.0000000   0.0000000   0.0000000   0.0000000
  105   0.0000000   0.0000000   0.3579227   0.0000000   0.0000000   0.0000000
  106   0.0000000   0.0000000   0.0000000   0.0000000  -0.0000000   0.0000000
  107   0.0000000   0.0000000   0.0000000   0.0669684   0.0000000   0.0000000
  108   0.0000000   0.0000000   0.0000000   0.0000000   0.0361805   0.0000000
  109   0.0009558   0.0000000   0.0000000   0.0000000   0.0000000   0.0343234
  110   0.0000000  -0.1230844   0.0000000   0.0000000   0.0000000   0.0000000
  111   0.0000000   0.0000000   0.2332890   0.0000000   0.0000000   0.0000000
  112   0.0000000   0.0000000   0.0000000   0.0000000   0.0000000   0.0000000
  113   0.0000000   0.0000000   0.0000000   0.0000000   0.0000000   0.0000000
  114   0.0000000   0.0000000   0.0000000   0.3339388   0.0000000   0.0000000
  115   0.0000000   0.0000000   0.0000000   0.0000000   0.2277374   0.0000000
  116   0.1277972   0.0000000   0.0000000   0.0000000   0.0000000   0.2150180
  117   0.0000000   0.0824490   0.0000000   0.0000000   0.0000000   0.0000000
  118   0.0000000   0.0000000   0.5665668   0.0000000   0.0000000   0.0000000
  119   0.0000000  -0.0000000   0.0000000   0.0000000   0.0000000   0.0000000
  120   0.0044426   0.0000000   0.0000000   0.0000000   0.0000000   0.0218651
  121   0.0007747   0.0000000   0.0000000   0.0000000   0.0000000   0.0045658
  122   0.0001250   0.0000000   0.0000000   0.0000000   0.0000000   0.0008149
  123   0.0000000  -0.0159592   0.0000000   0.0000000   0.0000000   0.0000000
  124   0.0000000   0.0000000   0.0000000   0.0000000  -0.0826176   0.0000000
  125  -0.0165717   0.0000000   0.0000000   0.0000000   0.0000000  -0.0866997
  126   0.0000000  -0.0038485   0.0000000   0.0000000   0.0000000   0.0000000
  127   0.0000000   0.0000000   0.0000000   0.0000000  -0.0233481   0.0000000
  128  -0.0042143   0.0000000   0.0000000   0.0000000   0.0000000  -0.0256384
  129   0.0000000  -0.0008681   0.0000000   0.0000000   0.0000000   0.0000000
  130   0.0000000   0.0000000   0.0000000   0.0000000  -0.0057465   0.0000000
  131  -0.0009761   0.0000000   0.0000000   0.0000000   0.0000000  -0.0064665
  132   0.0000000   0.0000000   0.0000000   0.6547748   0.0000000   0.0000000
  133   0.0000000   0.0000000   0.0000000   0.0000000   0.3701526   0.0000000
  134   0.0738666   0.0000000   0.0000000   0.0000000   0.0000000   0.3165191
  135   0.0000000   0.0908799   0.0000000   0.0000000   0.0000000   0.0000000
  136   0.0000000   0.0000000   0.2073088   0.0000000   0.0000000   0.0000000
  137   0.0000000   0.0000000   0.0000000   0.4019576   0.0000000   0.0000000
  138   0.0000000   0.0000000   0.0000000   0.0000000   0.2971222   0.0000000
  139   0.0566830   0.0000000   0.0000000   0.0000000   0.0000000   0.2712911
  140   0.0000000   0.0630214   0.0000000   0.0000000   0.0000000   0.0000000
  141   0.0000000   0.0000000   0.0902536   0.0000000   0.0000000   0.0000000
  142   0.0000000   0.0000000   0.0000000   0.1831049   0.0000000   0.0000000
  143   0.0000000   0.0000000   0.0000000   0.0000000   0.1565738   0.0000000
  144   0.0263351   0.0000000   0.0000000   0.0000000   0.0000000   0.1490115
  145   0.0000000   0.0277865   0.0000000   0.0000000   0.0000000   0.0000000
  146   0.0000000   0.0000000   0.0329498   0.0000000   0.0000000   0.0000000
           31          32          33          34          35          36
    1   0.0000000   0.0000000   0.0000000   0.0000000   0.0000000   0.0000000
    2   0.0000000   0.0000000   0.0000000   0.0000000   0.0000000  -0.0000000
    3   0.0000000   0.0000000   0.0000000   0.0000000   0.0000000   0.0000000
    4   0.0000000   0.0000000   0.0000000   0.0000000   0.0000000   0.0000000
    5   0.0000000   0.0000000   0.0000000   0.0000000   0.0000000   0.0000000
    6  -0.0000000   0.0000000   0.0000000   0.0000000   0.0000000   0.0000000
    7   0.0000000   0.0000000   0.0000000   0.0000000   0.0000000   0.0000000
    8   0.0000000   0.0000000   0.0000000   0.0000000   0.0000000  -0.0000000
    9  -0.0000000   0.0000000   0.0000000   0.0000000   0.0000000   0.0000000
   10   0.0000000   0.0000000   0.0000000   0.0000000   0.0000000   0.0000000
   11   0.0000000   0.0000000   0.0000000   0.0000000   0.0000000  -0.0000000
   12  -0.0000000   0.0000000   0.0000000   0.0000000   0.0000000   0.0000000
   13   0.0000000   0.0000000   0.0000000   0.0000000   0.0000000   0.0000000
   14   0.0000000   0.0000000   0.0000000   0.0000000   0.0000000  -0.0000000
   15   0.0000000   0.0000000   0.0000000   0.0000000   0.0000000   0.0000000
   16   0.0000000   0.0000000  -0.0000000   0.0000000  -0.0000000   0.0000000
   17   0.0000000   0.0000000   0.0000000   0.0000000   0.0000000   0.0000000
   18   0.0000000   0.0000000   0.0000000   0.0000000   0.0000000   0.0000000
   19   0.0000000   0.0000000   0.0000000   0.0000000   0.0000000   0.0000000
   20   0.0000000   0.0000000   0.0000000   0.0000000   0.0000000   0.0000000
   21   0.1263518   0.0000000   0.0000000   0.0000000   0.0000000   0.0000000
   22   0.0000000   0.1263518   0.0000000   0.0000000   0.0000000   0.0000000
   23   0.0000000   0.0000000   0.0000000   0.0000000   0.0000000   0.0000000
   24   0.0000000   0.0000000   0.0000000   0.0000000   0.0000000   0.0000000
   25   0.0000000   0.0000000   0.0000000   0.0000000   0.0000000   0.0000000
   26   0.5861330   0.0000000   0.0000000   0.0000000   0.0000000   0.0000000
   27   0.0000000   0.5861330   0.0000000   0.0000000   0.0000000   0.0000000
   28   0.0000000   0.0000000   0.0000000   0.0000000   0.0000000   0.0000000
   29   0.0000000   0.0000000   0.0000000   0.0000000   0.0000000   0.0000000
   30   0.0000000   0.0000000   0.0000000   0.0000000   0.0000000   0.0000000
   31   1.0000000   0.0000000   0.0000000   0.0000000   0.0000000   0.0000000
   32   0.0000000   1.0000000   0.0000000   0.0000000   0.0000000   0.0000000
   33   0.0000000   0.0000000   1.0000000   0.0000000  -0.0000000   0.0000000
   34   0.0000000   0.0000000   0.0000000   1.0000000   0.0000000   0.0000000
   35   0.0000000   0.0000000   0.0000000   0.0000000   1.0000000   0.0000000
   36   0.0000000   0.0000000   0.0000000   0.0000000   0.0000000   1.0000000
   37   0.0000000   0.0000000   0.0000000   0.0000000   0.0000000   0.0000000
   38   0.0000000   0.0000000   0.0000000   0.0000000   0.0000000   0.0000000
   39   0.0000000   0.0000000   0.0000000   0.0000000   0.0000000   0.0000000
   40   0.0000000   0.0000000   0.5229263   0.0000000  -0.0000000   0.0000000
   41   0.0000000   0.0000000   0.0000000   0.5229263   0.0000000   0.0000000
   42   0.0000000   0.0000000  -0.0000000   0.0000000   0.5229263   0.0000000
   43   0.0000000   0.0000000   0.0000000   0.0000000   0.0000000   0.5229263
   44   0.0000000   0.0000000   0.0000000   0.0000000   0.0000000   0.0000000
   45   0.0000000   0.0000000   0.0000000   0.0000000   0.0000000   0.0000000
   46   0.0000000   0.0000000   0.0000000   0.0000000   0.0000000   0.0000000
   47   0.0000000   0.0000000   0.0000000   0.0000000   0.0000000  -0.0000000
   48   0.0000000   0.0000000   0.0000000   0.0000000   0.0000000   0.0000000
   49   0.0000000   0.0000000   0.0000000   0.0000000   0.0000000   0.0000000
   50   0.0000000   0.0000000   0.0000000   0.0000000   0.0000000   0.0000000
   51   0.0000000   0.0000000   0.0000000   0.0000000   0.0000000   0.0000000
   52   0.0000000   0.0000000   0.0000000   0.0000000   0.0000000   0.0000000
   53  -0.0000000   0.0000000   0.0000000   0.0000000   0.0000000   0.0000000
   54   0.0000000   0.0000000  -0.0000000   0.0000000  -0.0000000   0.0000000
   55   0.0000000   0.0000000   0.0000000   0.0000000   0.0000000   0.0000000
   56   0.0000000   0.0000000   0.0000000   0.0000000   0.0000000   0.0000000
   57   0.0000000   0.0000000   0.0000000   0.0000000   0.0000000   0.0000000
   58   0.0000000   0.0000000   0.0000000   0.0000000   0.0000000   0.0000000
   59   0.0000000   0.0000000   0.0000000   0.0000000   0.0000000   0.0000000
   60   0.0000000   0.0000000  -0.0000000   0.0000000   0.0000000   0.0000000
   61   0.0000000   0.0000000   0.0000000   0.0000000   0.0000000   0.0000000
   62   0.8137352   0.0000000   0.0000000   0.0000000   0.0000000   0.0000000
   63   0.0000000   0.8137352   0.0000000   0.0000000   0.0000000   0.0000000
   64   0.0000000   0.0000000   0.0000000   0.0000000   0.0000000   0.0000000
   65   0.0000000   0.0000000   0.0000000   0.0000000   0.0000000   0.0000000
   66   0.0000000   0.0000000   0.0000000   0.0000000   0.0000000   0.0000000
   67   0.4579467   0.0000000   0.0000000   0.0000000   0.0000000   0.0000000
   68   0.0000000   0.4579467   0.0000000   0.0000000   0.0000000   0.0000000
   69   0.0000000   0.0000000   0.0000000   0.0000000   0.0000000   0.0000000
   70   0.0000000   0.0000000   0.0000000   0.0000000   0.0000000   0.0000000
   71   0.0000000   0.0000000   0.0000000   0.0000000   0.0000000   0.0000000
   72   0.1968628   0.0000000   0.0000000   0.0000000   0.0000000   0.0000000
   73   0.0000000   0.1968628   0.0000000   0.0000000   0.0000000   0.0000000
   74   0.0000000   0.0000000   0.0000000   0.0000000   0.0000000  -0.1170659
   75   0.0000000   0.0000000   0.0000000   0.0000000   0.0000000  -0.0850571
   76   0.0000000   0.0000000   0.0000000   0.0000000   0.0000000  -0.2597946
   77   0.0000000   0.0000000   0.0000000   0.0000000   0.0000000  -0.0175440
   78   0.0000000   0.0000000   0.0000000   0.0000000   0.0000000  -0.0006043
   79  -0.4916024   0.0000000   0.0000000   0.0000000   0.0000000   0.0000000
   80   0.0000000   0.0000000   0.0000000   0.0000000   0.2108676   0.0000000
   81   0.0000000   0.0000000   0.0000000   0.0000000   0.0000000  -0.0907511
   82  -0.4631216   0.0000000   0.0000000   0.0000000   0.0000000   0.0000000
   83   0.0000000   0.0000000   0.0000000   0.0000000   0.2399974   0.0000000
   84   0.0000000   0.0000000   0.0000000   0.0000000   0.0000000  -0.0175285
   85  -0.6048937   0.0000000   0.0000000   0.0000000   0.0000000   0.0000000
   86   0.0000000   0.0000000   0.0000000   0.0000000   0.0454819   0.0000000
   87   0.0000000   0.0000000   0.0000000   0.0000000   0.0000000   0.0318129
   88  -0.2320302   0.0000000   0.0000000   0.0000000   0.0000000   0.0000000
   89   0.0000000   0.0000000   0.0000000   0.0000000   0.0018883   0.0000000
   90   0.0000000   0.0000000   0.0000000   0.0000000   0.0000000   0.0019999
   91   0.0000000   0.0000000   0.0000000  -0.1416191   0.0000000   0.0000000
   92   0.0000000   0.0000000   0.0000000   0.0000000   0.3299256   0.0000000
   93   0.0000000   0.0000000   0.0000000   0.0000000   0.0000000  -0.1520296
   94  -0.0135538   0.0000000   0.0000000   0.0000000   0.0000000   0.0000000
   95   0.0000000   0.0695180   0.0000000   0.0000000   0.0000000   0.0000000
   96   0.0000000   0.0000000   0.0000000  -0.2332890   0.0000000   0.0000000
   97   0.0000000   0.0000000   0.0000000   0.0000000   0.1230844   0.0000000
   98   0.0000000   0.0000000   0.0000000   0.0000000   0.0000000  -0.0009558
   99   0.0048465   0.0000000   0.0000000   0.0000000   0.0000000   0.0000000
  100   0.0000000   0.3579227   0.0000000   0.0000000   0.0000000   0.0000000
  101   0.0000000   0.0000000   0.0000000  -0.0669684   0.0000000   0.0000000
  102   0.0000000   0.0000000   0.0000000   0.0000000  -0.0361805   0.0000000
  103   0.0000000   0.0000000   0.0000000   0.0000000   0.0000000  -0.0343234
  104   0.2511622   0.0000000   0.0000000   0.0000000   0.0000000   0.0000000
  105   0.0000000   0.7217941   0.0000000   0.0000000   0.0000000   0.0000000
  106   0.0000000   0.0000000   0.0944360   0.0000000   0.0000000   0.0000000
  107   0.0000000   0.0000000   0.0000000  -0.3512704   0.0000000   0.0000000
  108   0.0000000   0.0000000   0.0000000   0.0000000   0.2227399   0.0000000
  109   0.0000000   0.0000000   0.0000000   0.0000000   0.0000000  -0.1075656
  110   0.0361805   0.0000000   0.0000000   0.0000000   0.0000000   0.0000000
  111   0.0000000   0.0669684   0.0000000   0.0000000   0.0000000   0.0000000
  112   0.0000000   0.0000000   0.0000000   0.0000000   0.0000000   0.0000000
  113   0.0000000   0.0000000   0.1608277   0.0000000  -0.0000000   0.0000000
  114   0.0000000   0.0000000   0.0000000  -0.2184384   0.0000000   0.0000000
  115   0.0000000   0.0000000  -0.0000000   0.0000000  -0.0882419   0.0000000
  116   0.0000000   0.0000000   0.0000000   0.0000000   0.0000000  -0.1258279
  117   0.2277374   0.0000000   0.0000000   0.0000000   0.0000000   0.0000000
  118   0.0000000   0.3339388   0.0000000   0.0000000   0.0000000   0.0000000
  119   0.0000000   0.0000000   0.0000000   0.0000000   0.0000000   0.0000000
  120   0.0000000   0.0000000   0.0000000   0.0000000   0.0000000  -0.0000565
  121   0.0000000   0.0000000   0.0000000   0.0000000   0.0000000  -0.0000047
  122   0.0000000   0.0000000   0.0000000   0.0000000   0.0000000  -0.0000004
  123  -0.0826176   0.0000000   0.0000000   0.0000000   0.0000000   0.0000000
  124   0.0000000   0.0000000  -0.0000000   0.0000000   0.0002417   0.0000000
  125   0.0000000   0.0000000   0.0000000   0.0000000   0.0000000   0.0002756
  126  -0.0233481   0.0000000   0.0000000   0.0000000   0.0000000   0.0000000
  127   0.0000000   0.0000000   0.0000000   0.0000000   0.0000281   0.0000000
  128   0.0000000   0.0000000   0.0000000   0.0000000   0.0000000   0.0000332
  129  -0.0057465   0.0000000   0.0000000   0.0000000   0.0000000   0.0000000
  130   0.0000000   0.0000000  -0.0000000   0.0000000   0.0000031   0.0000000
  131   0.0000000   0.0000000   0.0000000   0.0000000   0.0000000   0.0000037
  132   0.0000000   0.0000000   0.0000000  -0.0172489   0.0000000   0.0000000
  133   0.0000000   0.0000000   0.0000000   0.0000000  -0.0151648   0.0000000
  134   0.0000000   0.0000000   0.0000000   0.0000000   0.0000000  -0.0146889
  135   0.3701526   0.0000000   0.0000000   0.0000000   0.0000000   0.0000000
  136   0.0000000   0.6547748   0.0000000   0.0000000   0.0000000   0.0000000
  137   0.0000000   0.0000000   0.0000000  -0.0034444   0.0000000   0.0000000
  138   0.0000000   0.0000000   0.0000000   0.0000000  -0.0036704   0.0000000
  139   0.0000000   0.0000000   0.0000000   0.0000000   0.0000000  -0.0037013
  140   0.2971222   0.0000000   0.0000000   0.0000000   0.0000000   0.0000000
  141   0.0000000   0.4019576   0.0000000   0.0000000   0.0000000   0.0000000
  142   0.0000000   0.0000000   0.0000000  -0.0005968   0.0000000   0.0000000
  143   0.0000000   0.0000000  -0.0000000   0.0000000  -0.0006944   0.0000000
  144   0.0000000   0.0000000   0.0000000   0.0000000   0.0000000  -0.0007174
  145   0.1565738   0.0000000   0.0000000   0.0000000   0.0000000   0.0000000
  146   0.0000000   0.1831049   0.0000000   0.0000000   0.0000000   0.0000000
           37          38          39          40          41          42
    1   0.0000000   0.0000000   0.0000000   0.0000000   0.0000000   0.0000000
    2   0.0000000   0.0000000   0.0000000   0.0000000   0.0000000   0.0000000
    3   0.0000000   0.0000000   0.0000000   0.0000000   0.0000000   0.0000000
    4   0.0000000   0.0000000   0.0000000   0.0000000   0.0000000   0.0000000
    5   0.0000000   0.0000000   0.0000000   0.0000000   0.0000000   0.0000000
    6   0.0000000   0.0000000   0.0000000   0.0000000   0.0000000   0.0000000
    7   0.0000000   0.0000000   0.0000000   0.0000000   0.0000000   0.0000000
    8   0.0000000   0.0000000   0.0000000   0.0000000   0.0000000   0.0000000
    9   0.0000000   0.0000000  -0.0000000   0.0000000   0.0000000   0.0000000
   10   0.0000000   0.0000000   0.0000000   0.0000000   0.0000000   0.0000000
   11   0.0000000   0.0000000   0.0000000   0.0000000   0.0000000   0.0000000
   12   0.0000000   0.0000000   0.0000000   0.0000000   0.0000000   0.0000000
   13   0.0000000   0.0000000   0.0000000  -0.0000000   0.0000000  -0.0000000
   14   0.0000000   0.0000000   0.0000000   0.0000000   0.0000000   0.0000000
   15  -0.0000000   0.0000000   0.0000000   0.0000000   0.0000000   0.0000000
   16   0.0000000   0.0000000   0.0000000  -0.0000000   0.0000000  -0.0000000
   17   0.0000000   0.0000000   0.0000000   0.0000000   0.0000000   0.0000000
   18   0.0000000   0.0000000   0.0000000   0.0000000   0.0000000   0.0000000
   19   0.0000000   0.0000000   0.0000000   0.0000000   0.0000000   0.0000000
   20   0.0000000   0.0000000   0.0000000   0.0000000   0.0000000   0.0000000
   21   0.0000000   0.0000000  -0.0000000   0.0000000   0.0000000   0.0000000
   22   0.0000000   0.0000000   0.0000000   0.0000000   0.0000000   0.0000000
   23   0.0000000   0.0000000   0.0000000   0.0000000   0.0000000   0.0000000
   24   0.0000000   0.0000000   0.0000000   0.0000000   0.0000000   0.0000000
   25   0.0000000   0.0000000   0.0000000   0.0000000   0.0000000   0.0000000
   26   0.0000000   0.0000000   0.0000000   0.0000000   0.0000000   0.0000000
   27   0.0000000   0.0000000   0.0000000   0.0000000   0.0000000   0.0000000
   28   0.0000000   0.0000000   0.0000000   0.0000000   0.0000000   0.0000000
   29   0.0000000   0.0000000   0.0000000   0.0000000   0.0000000   0.0000000
   30   0.0000000   0.0000000   0.0000000   0.0000000   0.0000000   0.0000000
   31   0.0000000   0.0000000   0.0000000   0.0000000   0.0000000   0.0000000
   32   0.0000000   0.0000000   0.0000000   0.0000000   0.0000000   0.0000000
   33   0.0000000   0.0000000   0.0000000   0.5229263   0.0000000   0.0000000
[...]
   <r_h> [Ang]:                        [ -0.000000,   0.000000,   0.000000]
   <r_e> [Ang]:                        [ -0.000000,  -0.000000,   0.000000]
   |<r_e - r_h>| [Ang]:                  0.000000
   Hole size [Ang]:                      6.175481
     Cartesian components [Ang]:       [  4.084083,   2.357996,   3.987065]
   Electron size [Ang]:                  5.081958
     Cartesian components [Ang]:       [  3.277826,   1.892549,   3.391226]
   RMS electron-hole separation [Ang]:   7.994398
     Cartesian components [Ang]:       [  5.235644,   3.023472,   5.230398]
   Covariance(r_h, r_e) [Ang^2]:         0.026229
   Correlation coefficient:              0.000836
   Center-of-mass size [Ang]:            4.000479
     Cartesian components [Ang]:       [  2.618959,   1.511819,   2.619024]

 ------------------------------------------------------------------------------
 State A: eomea_ccsd/b: 4/B2g
 State B: eomea_ccsd/b: 5/B2g
 Transition dipole moment (a.u.):
   A->B: 0.000000 (X 0.000000, Y 0.000000, Z 0.000000)
   B->A: 0.000000 (X 0.000000, Y 0.000000, Z 0.000000)
 Oscillator strength (a.u.): 0.000000
 Transition angular momentum against gauge origin (a.u.):
   A->B:  (X 0.000000i, Y 0.000000i, Z 0.000000i)
   B->A:  (X 0.000000i, Y 0.000000i, Z 0.000000i)
 Norm of one-particle transition density matrix:
   A->B: 0.981078;   B->A: 0.983937
   ||gamma^AB||*||gamma^BA||: 0.965319

State analysis of transition OPDM (A->B) using libwa module will be excecuted
 
 CT numbers (Mulliken)
   omega =     0.9625 (alpha:     0.0031, beta:     0.9595)
   <Phe> =     0.0106 (alpha:     0.9929, beta:     0.0075)
 
 Exciton analysis of the transition density matrix
 Total:
   Trans. dipole moment [D]:             0.000000
     Cartesian components [D]:         [ -0.000000,   0.000000,   0.000000]
   <r_h> [Ang]:                        [ -0.000000,   0.000000,  -0.000000]
   <r_e> [Ang]:                        [ -0.000000,  -0.000000,  -0.000000]
   |<r_e - r_h>| [Ang]:                  0.000000
   Hole size [Ang]:                      5.863972
     Cartesian components [Ang]:       [  3.743781,   2.162003,   3.961819]
   Electron size [Ang]:                  5.811328
     Cartesian components [Ang]:       [  3.692159,   2.132228,   3.948810]
   RMS electron-hole separation [Ang]:   8.252948
     Cartesian components [Ang]:       [  5.256391,   3.036241,   5.591310]
   Covariance(r_h, r_e) [Ang^2]:         0.023270
   Correlation coefficient:              0.000683
   Center-of-mass size [Ang]:            4.129293
     Cartesian components [Ang]:       [  2.629934,   1.518432,   2.798011]
 
 Alpha spin:
   Trans. dipole moment [D]:             0.000000
     Cartesian components [D]:         [ -0.000000,   0.000000,   0.000000]
   <r_h> [Ang]:                        [  0.000000,  -0.000000,  -0.000000]
   <r_e> [Ang]:                        [  0.000000,  -0.000000,  -0.000000]
   |<r_e - r_h>| [Ang]:                  0.000000
   Hole size [Ang]:                      1.640070
     Cartesian components [Ang]:       [  0.870249,   0.831152,   1.114308]
   Electron size [Ang]:                  1.715277
     Cartesian components [Ang]:       [  0.924915,   0.873545,   1.150491]
   RMS electron-hole separation [Ang]:   1.931593
     Cartesian components [Ang]:       [  1.127253,   1.074189,   1.143010]
   Covariance(r_h, r_e) [Ang^2]:         0.950477
   Correlation coefficient:              0.337866
   Center-of-mass size [Ang]:            1.372312
     Cartesian components [Ang]:       [  0.699089,   0.662176,   0.977772]
 
 Beta spin:
   Trans. dipole moment [D]:             0.000000
     Cartesian components [D]:         [ -0.000000,   0.000000,   0.000000]
   <r_h> [Ang]:                        [ -0.000000,   0.000000,  -0.000000]
   <r_e> [Ang]:                        [ -0.000000,  -0.000000,  -0.000000]
   |<r_e - r_h>| [Ang]:                  0.000000
   Hole size [Ang]:                      5.872573
     Cartesian components [Ang]:       [  3.749416,   2.164935,   3.967625]
   Electron size [Ang]:                  5.819769
     Cartesian components [Ang]:       [  3.697665,   2.135052,   3.954560]
   RMS electron-hole separation [Ang]:   8.265361
     Cartesian components [Ang]:       [  5.264371,   3.040468,   5.599835]
   Covariance(r_h, r_e) [Ang^2]:         0.020317
   Correlation coefficient:              0.000594
   Center-of-mass size [Ang]:            4.135138
     Cartesian components [Ang]:       [  2.633823,   1.520389,   2.801920]

 ------------------------------------------------------------------------------
 State A: eomea_ccsd/b: 4/B2g
 State B: eomea_ccsd/b: 6/B2g
 Transition dipole moment (a.u.):
   A->B: 0.000000 (X 0.000000, Y 0.000000, Z 0.000000)
   B->A: 0.000000 (X 0.000000, Y 0.000000, Z 0.000000)
 Oscillator strength (a.u.): 0.000000
 Transition angular momentum against gauge origin (a.u.):
   A->B:  (X 0.000000i, Y 0.000000i, Z 0.000000i)
   B->A:  (X 0.000000i, Y 0.000000i, Z 0.000000i)
 Norm of one-particle transition density matrix:
   A->B: 0.979601;   B->A: 0.982542
   ||gamma^AB||*||gamma^BA||: 0.962499

State analysis of transition OPDM (A->B) using libwa module will be excecuted
 
 CT numbers (Mulliken)
   omega =     0.9596 (alpha:     0.0023, beta:     0.9573)
   <Phe> =     0.0071 (alpha:     0.9583, beta:     0.0048)
 
 Exciton analysis of the transition density matrix
 Total:
   Trans. dipole moment [D]:             0.000000
     Cartesian components [D]:         [ -0.000000,   0.000000,  -0.000000]
   <r_h> [Ang]:                        [ -0.000000,   0.000000,  -0.000000]
   <r_e> [Ang]:                        [ -0.000000,  -0.000000,   0.000000]
   |<r_e - r_h>| [Ang]:                  0.000000
   Hole size [Ang]:                      5.872148
     Cartesian components [Ang]:       [  3.749099,   2.164857,   3.967338]
   Electron size [Ang]:                  5.071672
     Cartesian components [Ang]:       [  3.271012,   1.889071,   3.384338]
   RMS electron-hole separation [Ang]:   7.755628
     Cartesian components [Ang]:       [  4.974349,   2.872961,   5.210731]
   Covariance(r_h, r_e) [Ang^2]:         0.027105
   Correlation coefficient:              0.000910
   Center-of-mass size [Ang]:            3.881307
     Cartesian components [Ang]:       [  2.488292,   1.436704,   2.609373]
 
 Alpha spin:
   Trans. dipole moment [D]:             0.000000
     Cartesian components [D]:         [ -0.000000,   0.000000,  -0.000000]
   <r_h> [Ang]:                        [  0.000000,  -0.000000,  -0.000000]
   <r_e> [Ang]:                        [  0.000000,  -0.000000,  -0.000000]
   |<r_e - r_h>| [Ang]:                  0.000000
   Hole size [Ang]:                      1.503049
     Cartesian components [Ang]:       [  0.791949,   0.745878,   1.037130]
   Electron size [Ang]:                  1.862341
     Cartesian components [Ang]:       [  1.029879,   0.956021,   1.222165]
   RMS electron-hole separation [Ang]:   1.961363
     Cartesian components [Ang]:       [  1.155084,   1.085149,   1.155499]
   Covariance(r_h, r_e) [Ang^2]:         0.940262
   Correlation coefficient:              0.335905
   Center-of-mass size [Ang]:            1.379130
     Cartesian components [Ang]:       [  0.714396,   0.663904,   0.975125]
 
 Beta spin:
   Trans. dipole moment [D]:             0.000000
     Cartesian components [D]:         [ -0.000000,   0.000000,  -0.000000]
   <r_h> [Ang]:                        [ -0.000000,   0.000000,  -0.000000]
   <r_e> [Ang]:                        [ -0.000000,  -0.000000,   0.000000]
   |<r_e - r_h>| [Ang]:                  0.000000
   Hole size [Ang]:                      5.878830
     Cartesian components [Ang]:       [  3.753461,   2.167180,   3.971839]
   Electron size [Ang]:                  5.077016
     Cartesian components [Ang]:       [  3.274601,   1.890782,   3.387922]
   RMS electron-hole separation [Ang]:   7.764469
     Cartesian components [Ang]:       [  4.980080,   2.875961,   5.216764]
   Covariance(r_h, r_e) [Ang^2]:         0.024880
   Correlation coefficient:              0.000834
   Center-of-mass size [Ang]:            3.885437
     Cartesian components [Ang]:       [  2.491072,   1.438081,   2.612107]

 ------------------------------------------------------------------------------
 State A: eomea_ccsd/b: 5/B2g
 State B: eomea_ccsd/b: 6/B2g
 Transition dipole moment (a.u.):
   A->B: 0.000000 (X 0.000000, Y 0.000000, Z 0.000000)
   B->A: 0.000000 (X 0.000000, Y 0.000000, Z 0.000000)
 Oscillator strength (a.u.): 0.000000
 Transition angular momentum against gauge origin (a.u.):
   A->B:  (X 0.000000i, Y 0.000000i, Z 0.000000i)
   B->A:  (X 0.000000i, Y 0.000000i, Z 0.000000i)
 Norm of one-particle transition density matrix:
   A->B: 0.990677;   B->A: 0.990641
   ||gamma^AB||*||gamma^BA||: 0.981405

State analysis of transition OPDM (A->B) using libwa module will be excecuted
 
 CT numbers (Mulliken)
   omega =     0.9814 (alpha:     0.0006, beta:     0.9809)
   <Phe> =     0.0019 (alpha:     0.9899, beta:     0.0013)
 
 Exciton analysis of the transition density matrix
 Total:
   Trans. dipole moment [D]:             0.000000
     Cartesian components [D]:         [  0.000000,   0.000000,   0.000000]
   <r_h> [Ang]:                        [ -0.000000,  -0.000000,  -0.000000]
   <r_e> [Ang]:                        [ -0.000000,  -0.000000,   0.000000]
   |<r_e - r_h>| [Ang]:                  0.000000
   Hole size [Ang]:                      5.853750
     Cartesian components [Ang]:       [  3.719412,   2.147495,   3.977515]
   Electron size [Ang]:                  5.085298
     Cartesian components [Ang]:       [  3.280023,   1.893844,   3.393384]
   RMS electron-hole separation [Ang]:   7.752646
     Cartesian components [Ang]:       [  4.958412,   2.863182,   5.226840]
   Covariance(r_h, r_e) [Ang^2]:         0.011565
   Correlation coefficient:              0.000388
   Center-of-mass size [Ang]:            3.877814
     Cartesian components [Ang]:       [  2.479885,   1.431690,   2.614934]
 
 Alpha spin:
   Trans. dipole moment [D]:             0.000000
     Cartesian components [D]:         [  0.000000,   0.000000,   0.000000]
   <r_h> [Ang]:                        [  0.000000,  -0.000000,  -0.000000]
   <r_e> [Ang]:                        [  0.000000,  -0.000000,  -0.000000]
   |<r_e - r_h>| [Ang]:                  0.000000
   Hole size [Ang]:                      1.597924
     Cartesian components [Ang]:       [  0.857391,   0.806311,   1.080788]
   Electron size [Ang]:                  1.752197
     Cartesian components [Ang]:       [  0.964236,   0.894567,   1.157667]
   RMS electron-hole separation [Ang]:   1.937636
     Cartesian components [Ang]:       [  1.141255,   1.072933,   1.140519]
   Covariance(r_h, r_e) [Ang^2]:         0.934561
   Correlation coefficient:              0.333786
   Center-of-mass size [Ang]:            1.368638
     Cartesian components [Ang]:       [  0.711913,   0.661360,   0.963821]
 
 Beta spin:
   Trans. dipole moment [D]:             0.000000
     Cartesian components [D]:         [  0.000000,   0.000000,   0.000000]
   <r_h> [Ang]:                        [ -0.000000,  -0.000000,  -0.000000]
   <r_e> [Ang]:                        [ -0.000000,  -0.000000,   0.000000]
   |<r_e - r_h>| [Ang]:                  0.000000
   Hole size [Ang]:                      5.855376
     Cartesian components [Ang]:       [  3.720469,   2.148049,   3.978620]
   Electron size [Ang]:                  5.086642
     Cartesian components [Ang]:       [  3.280922,   1.894285,   3.394284]
   RMS electron-hole separation [Ang]:   7.754826
     Cartesian components [Ang]:       [  4.959821,   2.863921,   5.228333]
   Covariance(r_h, r_e) [Ang^2]:         0.011011
   Correlation coefficient:              0.000370
   Center-of-mass size [Ang]:            3.878833
     Cartesian components [Ang]:       [  2.480567,   1.432028,   2.615612]


 All requested transition properties have been computed

 Transition Properties:   CPU 86.40 s  wall 12.21 s

 Total ccman2 time:   CPU 478.50 s  wall 65.51 s


 --------------------------------------------------------------
             Orbital Energies (a.u.) and Symmetries
 --------------------------------------------------------------

 Alpha MOs, Restricted
 -- Occupied --                  
-15.686 -15.682  -1.471  -0.780  -0.634  -0.614  -0.614
  1 Ag    1 B1u   2 Ag    2 B1u   3 Ag    1 B3u   1 B2u                        
 -- Virtual --                   
  0.007   0.009   0.012   0.012   0.016   0.016   0.018   0.029
  4 Ag    3 B1u   2 B3u   2 B2u   1 B2g   1 B3g   5 Ag    4 B1u                
  0.034   0.041   0.041   0.045   0.045   0.052   0.053   0.053
  6 Ag    3 B3u   3 B2u   2 B2g   2 B3g   7 Ag    8 Ag    1 B1g                
  0.065   0.072   0.072   0.072   0.073   0.073   0.087   0.089
  5 B1u   1 Au    6 B1u   7 B1u   4 B3u   4 B2u   9 Ag    3 B2g                
  0.089   0.104   0.104   0.119   0.128   0.131   0.131   0.154
  3 B3g   5 B3u   5 B2u  10 Ag    8 B1u   4 B2g   4 B3g  11 Ag                 
  0.155   0.155   0.167   0.167   0.192   0.193   0.193   0.198
 12 Ag    2 B1g   5 B2g   5 B3g   9 B1u   2 Au   10 B1u   6 B3u                
  0.198   0.209   0.226   0.226   0.243   0.255   0.255   0.285
  6 B2u  13 Ag    6 B2g   6 B3g  11 B1u   7 B3u   7 B2u  14 Ag                 
  0.330   0.333   0.333   0.348   0.348   0.415   0.427   0.427
 15 Ag    7 B2g   7 B3g  16 Ag    3 B1g  12 B1u   3 Au   13 B1u                
  0.448   0.448   0.464   0.529   0.531   0.531   0.661   0.714
  8 B3u   8 B2u  14 B1u  17 Ag    8 B2g   8 B3g  18 Ag   19 Ag                 
  0.714   0.727   0.727   0.776   0.879   0.879   0.905   0.911
  4 B1g   9 B3u   9 B2u  15 B1u   4 Au   16 B1u  17 B1u   9 B2g                
  0.911   1.001   1.001   1.041   1.096   1.096   1.242   1.372
  9 B3g  10 B3u  10 B2u  20 Ag   10 B2g  10 B3g  18 B1u  11 B2u                
  1.372   1.472   1.577   1.577   1.656   1.656   1.720   1.720
 11 B3u  21 Ag   22 Ag    5 B1g  12 B3u  12 B2u  11 B3g  11 B2g                
  1.749   1.749   1.803   1.812   1.812   1.838   1.957   1.957
  6 B1g  23 Ag   24 Ag   19 B1u   5 Au   20 B1u  12 B2g  12 B3g                
  2.082   2.193   2.193   2.323   2.323   2.476   2.476   2.797
 21 B1u  13 B3u  13 B2u  22 B1u   6 Au   13 B2g  13 B3g  23 B1u                
  2.989   3.464   3.464   4.052   4.433   4.433   4.465   4.465
 25 Ag   14 B3u  14 B2u  26 Ag   14 B2g  14 B3g   7 B1g  27 Ag                 
  4.555   4.555   4.662   4.662   4.725   4.753   5.042   5.042
 15 B3u  15 B2u  16 B3u  16 B2u  24 B1u  28 Ag   15 B2g  15 B3g                
  5.214   5.214   5.268   5.268   5.289   5.448   5.448   5.687
  8 B1g  29 Ag    7 Au   25 B1u  26 B1u  16 B2g  16 B3g  17 B3u                
  5.687   5.770   5.770   6.754   6.795   6.913   6.913  12.363
 17 B2u  27 B1u   8 Au   30 Ag   28 B1u  17 B2g  17 B3g  31 Ag                 
 19.591
 29 B1u                                                                        

 Beta MOs, Restricted
 -- Occupied --                  
-15.686 -15.682  -1.471  -0.780  -0.634  -0.614  -0.614
  1 Ag    1 B1u   2 Ag    2 B1u   3 Ag    1 B3u   1 B2u                        
 -- Virtual --                   
  0.007   0.009   0.012   0.012   0.016   0.016   0.018   0.029
  4 Ag    3 B1u   2 B3u   2 B2u   1 B2g   1 B3g   5 Ag    4 B1u                
  0.034   0.041   0.041   0.045   0.045   0.052   0.053   0.053
  6 Ag    3 B3u   3 B2u   2 B2g   2 B3g   7 Ag    8 Ag    1 B1g                
  0.065   0.072   0.072   0.072   0.073   0.073   0.087   0.089
  5 B1u   1 Au    6 B1u   7 B1u   4 B3u   4 B2u   9 Ag    3 B2g                
  0.089   0.104   0.104   0.119   0.128   0.131   0.131   0.154
  3 B3g   5 B3u   5 B2u  10 Ag    8 B1u   4 B2g   4 B3g  11 Ag                 
  0.155   0.155   0.167   0.167   0.192   0.193   0.193   0.198
 12 Ag    2 B1g   5 B2g   5 B3g   9 B1u   2 Au   10 B1u   6 B3u                
  0.198   0.209   0.226   0.226   0.243   0.255   0.255   0.285
  6 B2u  13 Ag    6 B2g   6 B3g  11 B1u   7 B3u   7 B2u  14 Ag                 
  0.330   0.333   0.333   0.348   0.348   0.415   0.427   0.427
 15 Ag    7 B2g   7 B3g  16 Ag    3 B1g  12 B1u   3 Au   13 B1u                
  0.448   0.448   0.464   0.529   0.531   0.531   0.661   0.714
  8 B3u   8 B2u  14 B1u  17 Ag    8 B2g   8 B3g  18 Ag   19 Ag                 
  0.714   0.727   0.727   0.776   0.879   0.879   0.905   0.911
  4 B1g   9 B3u   9 B2u  15 B1u   4 Au   16 B1u  17 B1u   9 B2g                
  0.911   1.001   1.001   1.041   1.096   1.096   1.242   1.372
  9 B3g  10 B3u  10 B2u  20 Ag   10 B2g  10 B3g  18 B1u  11 B2u                
  1.372   1.472   1.577   1.577   1.656   1.656   1.720   1.720
 11 B3u  21 Ag   22 Ag    5 B1g  12 B3u  12 B2u  11 B3g  11 B2g                
  1.749   1.749   1.803   1.812   1.812   1.838   1.957   1.957
  6 B1g  23 Ag   24 Ag   19 B1u   5 Au   20 B1u  12 B2g  12 B3g                
  2.082   2.193   2.193   2.323   2.323   2.476   2.476   2.797
 21 B1u  13 B3u  13 B2u  22 B1u   6 Au   13 B2g  13 B3g  23 B1u                
  2.989   3.464   3.464   4.052   4.433   4.433   4.465   4.465
 25 Ag   14 B3u  14 B2u  26 Ag   14 B2g  14 B3g   7 B1g  27 Ag                 
  4.555   4.555   4.662   4.662   4.725   4.753   5.042   5.042
 15 B3u  15 B2u  16 B3u  16 B2u  24 B1u  28 Ag   15 B2g  15 B3g                
  5.214   5.214   5.268   5.268   5.289   5.448   5.448   5.687
  8 B1g  29 Ag    7 Au   25 B1u  26 B1u  16 B2g  16 B3g  17 B3u                
  5.687   5.770   5.770   6.754   6.795   6.913   6.913  12.363
 17 B2u  27 B1u   8 Au   30 Ag   28 B1u  17 B2g  17 B3g  31 Ag                 
 19.591
 29 B1u                                                                        
 --------------------------------------------------------------

          Ground-State Mulliken Net Atomic Charges

     Atom                 Charge (a.u.)
  ----------------------------------------
      1 N                    -0.000000
      2 N                     0.000000
  ----------------------------------------
  Sum of atomic charges =     0.000000

 -----------------------------------------------------------------
                    Cartesian Multipole Moments
 -----------------------------------------------------------------
    Charge (ESU x 10^10)
                -0.0000
    Dipole Moment (Debye)
         X       0.0000      Y       0.0000      Z       0.0000
       Tot       0.0000
    Quadrupole Moments (Debye-Ang)
        XX     -10.4063     XY       0.0000     YY     -10.4063
        XZ       0.0000     YZ      -0.0000     ZZ     -11.6410
    Octopole Moments (Debye-Ang^2)
       XXX       0.0000    XXY      -0.0000    XYY       0.0000
       YYY      -0.0000    XXZ       0.0000    XYZ       0.0000
       YYZ       0.0000    XZZ       0.0000    YZZ       0.0000
       ZZZ       0.0000
    Hexadecapole Moments (Debye-Ang^3)
      XXXX      -9.3857   XXXY       0.0000   XXYY      -3.1286
      XYYY       0.0000   YYYY      -9.3857   XXXZ       0.0000
      XXYZ       0.0000   XYYZ       0.0000   YYYZ       0.0000
      XXZZ      -6.3593   XYZZ       0.0000   YYZZ      -6.3593
      XZZZ       0.0000   YZZZ      -0.0000   ZZZZ     -31.6259
 -----------------------------------------------------------------
Archival summary:
1\1\node5\SP\ProcedureUnspecified\BasisUnspecified\2\gayverjr\ThuApr211:24:582020ThuApr211:24:582020\0\\#,ProcedureUnspecified,BasisUnspecified,\\0,1\N\N,1,2.078\\HF=-108.984512\\@

 Total job time:  71.24s(wall), 515.43s(cpu) 
 Thu Apr  2 11:24:58 2020

        *************************************************************
        *                                                           *
        *  Thank you very much for using Q-Chem.  Have a nice day.  *
        *                                                           *
        *************************************************************


