                  Welcome to Q-Chem
     A Quantum Leap Into The Future Of Chemistry


 Q-Chem 5.3 (devel), Q-Chem, Inc., Pleasanton, CA (2020)

 Yihan Shao,  Zhengting Gan,  E. Epifanovsky,  A. T. B. Gilbert,  M. Wormit,  
 J. Kussmann,  A. W. Lange,  A. Behn,  Jia Deng,  Xintian Feng,  D. Ghosh,  
 M. Goldey,  P. R. Horn,  L. D. Jacobson,  I. Kaliman,  T. Kus,  A. Landau,  
 Jie Liu,  E. I. Proynov,  R. M. Richard,  R. P. Steele,  E. J. Sundstrom,  
 H. L. Woodcock III,  P. M. Zimmerman,  D. Zuev,  B. Alam,  B. Albrecht,  
 A. Aldossary,  E. Alguire,  S. A. Baeppler,  D. Barton,  Z. Benda,  
 Y. A. Bernard,  E. J. Berquist,  K. B. Bravaya,  H. Burton,  K. Carter-Fenk,  
 D. Casanova,  Chun-Min Chang,  Yunqing Chen,  A. Chien,  K. D. Closser,  
 M. P. Coons,  S. Coriani,  S. Dasgupta,  A. L. Dempwolff,  M. Diedenhofen,  
 Hainam Do,  R. G. Edgar,  Po-Tung Fang,  S. Faraji,  S. Fatehi,  
 Qingguo Feng,  J. Fosso-Tande,  J. Gayvert,  Qinghui Ge,  A. Ghysels,  
 G. Gidofalvi,  J. Gomes,  J. Gonthier,  S. Gulania,  A. Gunina,  D. Hait,  
 M. W. D. Hanson-Heine,  S. Hammes-Schiffer,  P. H. P. Harbach,  
 A. W. Hauser,  M. F. Herbst,  J. E. Herr,  E. G. Hohenstein,  Z. C. Holden,  
 S. Houck,  Kerwin Hui,  B. C. Huynh,  M. Ivanov,  T.-C. Jagau,  Hyunjun Ji,  
 B. Kaduk,  K. Khistyaev,  Jaehoon Kim,  P. Klunzinger,  K. Koh,  
 D. Kosenkov,  L. Koulias,  T. Kowalczyk,  C. M. Krauter,  A. Kunitsa,  
 Ka Un Lao,  A. Laurent,  K. V. Lawler,  Joonho Lee,  D. Lefrancois,  
 S. Lehtola,  D. S. Levine,  Yi-Pei Li,  You-Sheng Lin,  Fenglai Liu,  
 Kuan-Yu Liu,  E. Livshits,  M. Loipersberger,  A. Luenser,  A. Manjanath,  
 P. Manohar,  E. Mansoor,  S. F. Manzer,  Shan-Ping Mao,  Yuezhi Mao,  
 N. Mardirossian,  A. V. Marenich,  T. Markovich,  L. A. Martinez-Martinez,  
 S. A. Maurer,  N. J. Mayhall,  S. C. McKenzie,  J.-M. Mewes,  P. Morgante,  
 A. F. Morrison,  J. W. Mullinax,  K. Nanda,  T. S. Nguyen-Beck,  
 R. Olivares-Amaya,  K. J. Oosterbaan,  J. A. Parkhill,  S. K. Paul,  
 F. Pavosevic,  Zheng Pei,  T. M. Perrine,  F. Plasser,  P. Pokhilko,  
 S. Prager,  A. Prociuk,  E. Ramos,  B. Rana,  D. R. Rehn,  F. Rob,  
 E. Rossomme,  M. Scheurer,  M. Schneider,  N. Sergueev,  S. M. Sharada,  
 S. Sharma,  W. Skomorowski,  D. W. Small,  T. Stauch,  C. J. Stein,  
 T. Stein,  Yu-Chuan Su,  S. P. Veccham,  Zhen Tao,  A. J. W. Thom,  
 A. Tkatchenko,  T. Tsuchimochi,  N. M. Tubman,  L. Vogt,  M. L. Vidal,  
 O. Vydrov,  M. A. Watson,  J. Wenzel,  M. de Wergifosse,  T. A. Wesolowski,  
 A. White,  J. Witte,  A. Yamada,  Jun Yang,  K. Yao,  S. Yeganeh,  
 S. R. Yost,  Zhi-Qiang You,  A. Zech,  Igor Ying Zhang,  Xing Zhang,  
 Yan Zhao,  Ying Zhu,  B. R. Brooks,  G. K. L. Chan,  C. J. Cramer,  
 M. S. Gordon,  W. J. Hehre,  A. Klamt,  M. W. Schmidt,  C. D. Sherrill,  
 D. G. Truhlar,  A. Aspuru-Guzik,  R. Baer,  A. T. Bell,  N. A. Besley,  
 Jeng-Da Chai,  A. E. DePrince, III,  R. A. DiStasio Jr.,  A. Dreuw,  
 B. D. Dunietz,  T. R. Furlani,  Chao-Ping Hsu,  Yousung Jung,  Jing Kong,  
 D. S. Lambrecht,  WanZhen Liang,  C. Ochsenfeld,  V. A. Rassolov,  
 L. V. Slipchenko,  J. E. Subotnik,  T. Van Voorhis,  J. M. Herbert,  
 A. I. Krylov,  P. M. W. Gill,  M. Head-Gordon

 Contributors to earlier versions of Q-Chem not listed above: 
 R. D. Adamson,  B. Austin,  J. Baker,  G. J. O. Beran,  K. Brandhorst,  
 S. T. Brown,  E. F. C. Byrd,  A. K. Chakraborty,  C.-L. Cheng,  
 Siu Hung Chien,  D. M. Chipman,  D. L. Crittenden,  H. Dachsel,  
 R. J. Doerksen,  A. D. Dutoi,  L. Fusti-Molnar,  W. A. Goddard III,  
 A. Golubeva-Zadorozhnaya,  S. R. Gwaltney,  G. Hawkins,  A. Heyden,  
 S. Hirata,  G. Kedziora,  F. J. Keil,  C. Kelley,  Jihan Kim,  R. A. King,  
 R. Z. Khaliullin,  P. P. Korambath,  W. Kurlancheek,  A. M. Lee,  M. S. Lee,  
 S. V. Levchenko,  Ching Yeh Lin,  D. Liotard,  R. C. Lochan,  I. Lotan,  
 P. E. Maslen,  N. Nair,  D. P. O'Neill,  D. Neuhauser,  E. Neuscamman,  
 C. M. Oana,  R. Olson,  B. Peters,  R. Peverati,  P. A. Pieniazek,  
 Y. M. Rhee,  J. Ritchie,  M. A. Rohrdanz,  E. Rosta,  N. J. Russ,  
 H. F. Schaefer III,  N. E. Schultz,  N. Shenvi,  A. C. Simmonett,  A. Sodt,  
 D. Stuck,  K. S. Thanthiriwatte,  V. Vanovschi,  Tao Wang,  A. Warshel,  
 C. F. Williams,  Q. Wu,  X. Xu,  W. Zhang

 Please cite Q-Chem as follows:
 Y. Shao et al., Mol. Phys. 113, 184-215 (2015)
 DOI: 10.1080/00268976.2014.952696

 Q-Chem 5.3.2 for Intel X86 EM64T Linux

 Parts of Q-Chem use Armadillo 9.800.1 (Horizon Scraper).
 http://arma.sourceforge.net/

 Q-Chem begins on Mon Apr 26 13:27:16 2021  

Host: node10
0

     Scratch files written to /scratch/gayverjr/eomcc.1391221682.saved//
Processing $rem in /home/qcsoftware/qchem/builds/qc532_projcap/qchem/config/preferences:
Processing $rem in /home/gayverjr/.qchemrc:
Core orbitals will be frozen

Checking the input file for inconsistencies... 	...done.

--------------------------------------------------------------
User input:
--------------------------------------------------------------
$molecule
0	1
N	 0.0	 0.0	 0.548756750
N	 0.0	 0.0	 -0.548756750
Gh	 0.0	 0.0	 0.0
$end

$rem
JOBTYPE	 sp
METHOD	 eom-ccsd
BASIS	 gen
GUI	 2 
EA_STATES	[0,0,10,0,10,0,0,0]
COMPLEX_CCMAN	 1
MEM_TOTAL	 100000
XC_GRID  000099000590
$end

$complex_ccman
PROJ_CAP 3
NSTEPS 1
ETA_STEP 50
CAP_TYPE	 1
CAP_ETA	50
CAP_X	2760
CAP_Y	2760
CAP_Z	4880
$end

$basis
N	0
aug-cc-pvtz
****
Gh	0
S   1   1.00
      0.0288000              1.0000000
S   1   1.00
      0.0144000              1.0000000
S   1   1.00
      0.0072000              1.0000000
P   1   1.00
      0.0245500              1.0000000 
P   1   1.00
      0.0122750              1.0000000 
P   1   1.00
      0.0061375              1.0000000
D   1   1.00
      0.0755000              1.0000000 
D   1   1.00
      0.0377500              1.0000000 
D   1   1.00
      0.0188750              1.0000000
****
$end
--------------------------------------------------------------
 ----------------------------------------------------------------
             Standard Nuclear Orientation (Angstroms)
    I     Atom           X                Y                Z
 ----------------------------------------------------------------
    1      N       0.0000000000     0.0000000000     0.5487567500
    2      N       0.0000000000     0.0000000000    -0.5487567500
    3      GH      0.0000000000     0.0000000000     0.0000000000
 ----------------------------------------------------------------
 Molecular Point Group                 D2h   NOp =  8
 Largest Abelian Subgroup              D2h   NOp =  8
 Nuclear Repulsion Energy =          23.62584454 hartrees
 There are        7 alpha and        7 beta electrons
 Requested basis set is non-standard
 There are 37 shells and 119 basis functions
 Total memory of 100000 MB is distributed as follows: 
   MEM_STATIC is set to 192 MB
   QALLOC/CCMAN JOB total memory use is  99808 MB
 Warning: actual memory use might exceed 100000 MB

 Total QAlloc Memory Limit 100000 MB
 Mega-Array Size       188 MB
 MEM_STATIC part       192 MB

                       Distance Matrix (Angstroms)
             N (  1)   N (  2)
   N (  2)  1.097514
   GH(  3)  0.548757  0.548757

 A cutoff of  1.0D-14 yielded    703 shell pairs
 There are      7347 function pairs (     10218 Cartesian)
 Smallest overlap matrix eigenvalue = 3.78E-05

 Scale SEOQF with 1.000000e-02/1.000000e-02/1.000000e-02

 Standard Electronic Orientation quadrupole field applied
 Guess MOs from core Hamiltonian diagonalization

 -----------------------------------------------------------------------
  General SCF calculation program by
  Eric Jon Sundstrom, Paul Horn, Yuezhi Mao, Dmitri Zuev, Alec White,
  David Stuck, Shaama M.S., Shane Yost, Joonho Lee, David Small,
  Daniel Levine, Susi Lehtola, Hugh Burton, Evgeny Epifanovsky,
  Bang C. Huynh
 -----------------------------------------------------------------------
 Hartree-Fock
 using 16 threads for integral computing
 -------------------------------------------------------
 OpenMP Integral computing Module                
 Release: version 2.0, May 2017, Q-Chem Inc. Pleasanton 
 -------------------------------------------------------
 A restricted SCF calculation will be
 performed using DIIS
 SCF converges when DIIS error is below 1.0e-08
 ---------------------------------------
  Cycle       Energy         DIIS error
 ---------------------------------------
    1     -93.7855397959      1.12e-01  
    2     -84.3041702616      4.25e-02  
    3    -106.9291820513      3.88e-02  
    4    -108.2729659332      2.11e-02  
    5    -108.9611610046      3.04e-03  
    6    -108.9846712480      3.08e-04  
    7    -108.9848631082      3.58e-05  
    8    -108.9848672631      9.86e-06  
    9    -108.9848674698      8.02e-07  
   10    -108.9848674728      1.38e-07  
   11    -108.9848674715      1.10e-08  
   12    -108.9848674703      1.19e-09  Convergence criterion met
 ---------------------------------------
 SCF time:   CPU 15.49s  wall 2.00s 
 SCF   energy in the final basis set =     -108.9848674703
 Total energy in the final basis set =     -108.9848674703
 CAP matrix will be calculated and saved for subsequent use


 ------------------------------------------------------------------------------

   CCMAN2: suite of methods based on coupled cluster
           and equation of motion theories.

   Components:
   * libvmm-1.3-trunk
     by Evgeny Epifanovsky, Ilya Kaliman.
   * libtensor-2.5-trunk
     by Evgeny Epifanovsky, Michael Wormit, Dmitry Zuev, Sam Manzer, 
        Ilya Kaliman.
   * libcc-2.5-trunk
     by Evgeny Epifanovsky, Arik Landau, Tomasz Kus, Kirill Khistyaev, 
        Dmitry Zuev, Prashant Manohar, Xintian Feng, Anna Krylov, 
        Matthew Goldey, Alec White, Thomas Jagau, Kaushik Nanda, 
        Anastasia Gunina, Alexander Kunitsa, Joonho Lee.

   CCMAN original authors:
   Anna I. Krylov, C. David Sherrill, Steven R. Gwaltney,
   Edward F. C. Byrd (2000)
   Sergey V. Levchenko, Lyudmila V. Slipchenko, Tao Wang,
   Ana-Maria C. Cristian (2003)
   Piotr A. Pieniazek, C. Melania Oana, Evgeny Epifanovsky (2007)
   Prashant Manohar (2009)

 ------------------------------------------------------------------------------


 Allocating and initializing 99808MB of RAM...
 Calculation will run on 16 cores.


 Alpha MOs, Restricted
 -- Occupied --                  
-15.685 -15.682  -1.472  -0.780  -0.635  -0.614  -0.614
  1 Ag    1 B1u   2 Ag    2 B1u   3 Ag    1 B3u   1 B2u                        
 -- Virtual --                   
  0.009   0.012   0.012   0.012   0.041   0.041   0.041   0.042
  4 Ag    2 B3u   2 B2u   3 B1u   3 B3u   3 B2u   4 B1u   5 Ag                 
  0.049   0.049   0.051   0.054   0.054   0.104   0.106   0.106
  1 B2g   1 B3g   6 Ag    7 Ag    1 B1g   5 B1u   4 B3u   4 B2u                
  0.118   0.119   0.119   0.140   0.157   0.157   0.173   0.173
  8 Ag    2 B2g   2 B3g   9 Ag   10 Ag    2 B1g   3 B2g   3 B3g                
  0.203   0.262   0.262   0.279   0.305   0.316   0.316   0.331
  6 B1u   5 B3u   5 B2u  11 Ag   12 Ag    4 B2g   4 B3g   7 B1u                
  0.354   0.354   0.531   0.542   0.542   0.580   0.582   0.582
 13 Ag    3 B1g  14 Ag    5 B2g   5 B3g   8 B1u   1 Au    9 B1u                
  0.583   0.583   0.650   0.715   0.715   0.719   0.719   0.789
  6 B3u   6 B2u  15 Ag   16 Ag    4 B1g   6 B2g   6 B3g  10 B1u                
  0.847   0.847   1.095   1.157   1.227   1.227   1.308   1.372
  7 B3u   7 B2u  11 B1u  17 Ag    7 B2g   7 B3g  18 Ag    8 B2u                
  1.372   1.477   1.477   1.548   1.548   1.571   1.571   1.667
  8 B3u   9 B3u   9 B2u  19 Ag    5 B1g   2 Au   12 B1u  13 B1u                
  1.720   1.720   1.777   1.777   1.821   1.821   1.826   2.002
  8 B2g   8 B3g  20 Ag    6 B1g   9 B2g   9 B3g  21 Ag   14 B1u                
  2.161   2.161   2.317   2.317   2.600   2.600   2.771   3.107
 10 B3u  10 B2u   3 Au   15 B1u  10 B2g  10 B3g  16 B1u  22 Ag                 
  3.389   3.389   4.048   4.364   4.364   4.447   4.447   4.529
 11 B3u  11 B2u  23 Ag   11 B2g  11 B3g  24 Ag    7 B1g  12 B3u                
  4.529   4.562   4.661   4.661   4.737   5.043   5.043   5.157
 12 B2u  17 B1u  13 B2u  13 B3u  25 Ag   12 B2g  12 B3g   4 Au                 
  5.157   5.202   5.226   5.226   5.532   5.532   5.595   5.595
 18 B1u  19 B1u  26 Ag    8 B1g  13 B2g  13 B3g  14 B3u  14 B2u                
  5.747   5.747   6.773   6.807   6.900   6.900  11.488  19.321
  5 Au   20 B1u  21 B1u  27 Ag   14 B2g  14 B3g  28 Ag   22 B1u                

 Beta MOs, Restricted
 -- Occupied --                  
-15.685 -15.682  -1.472  -0.780  -0.635  -0.614  -0.614
  1 Ag    1 B1u   2 Ag    2 B1u   3 Ag    1 B3u   1 B2u                        
 -- Virtual --                   
  0.009   0.012   0.012   0.012   0.041   0.041   0.041   0.042
  4 Ag    2 B3u   2 B2u   3 B1u   3 B3u   3 B2u   4 B1u   5 Ag                 
  0.049   0.049   0.051   0.054   0.054   0.104   0.106   0.106
  1 B2g   1 B3g   6 Ag    7 Ag    1 B1g   5 B1u   4 B3u   4 B2u                
  0.118   0.119   0.119   0.140   0.157   0.157   0.173   0.173
  8 Ag    2 B2g   2 B3g   9 Ag   10 Ag    2 B1g   3 B2g   3 B3g                
  0.203   0.262   0.262   0.279   0.305   0.316   0.316   0.331
  6 B1u   5 B3u   5 B2u  11 Ag   12 Ag    4 B2g   4 B3g   7 B1u                
  0.354   0.354   0.531   0.542   0.542   0.580   0.582   0.582
 13 Ag    3 B1g  14 Ag    5 B2g   5 B3g   8 B1u   1 Au    9 B1u                
  0.583   0.583   0.650   0.715   0.715   0.719   0.719   0.789
  6 B3u   6 B2u  15 Ag   16 Ag    4 B1g   6 B2g   6 B3g  10 B1u                
  0.847   0.847   1.095   1.157   1.227   1.227   1.308   1.372
  7 B3u   7 B2u  11 B1u  17 Ag    7 B2g   7 B3g  18 Ag    8 B2u                
  1.372   1.477   1.477   1.548   1.548   1.571   1.571   1.667
  8 B3u   9 B3u   9 B2u  19 Ag    5 B1g   2 Au   12 B1u  13 B1u                
  1.720   1.720   1.777   1.777   1.821   1.821   1.826   2.002
  8 B2g   8 B3g  20 Ag    6 B1g   9 B2g   9 B3g  21 Ag   14 B1u                
  2.161   2.161   2.317   2.317   2.600   2.600   2.771   3.107
 10 B3u  10 B2u   3 Au   15 B1u  10 B2g  10 B3g  16 B1u  22 Ag                 
  3.389   3.389   4.048   4.364   4.364   4.447   4.447   4.529
 11 B3u  11 B2u  23 Ag   11 B2g  11 B3g  24 Ag    7 B1g  12 B3u                
  4.529   4.562   4.661   4.661   4.737   5.043   5.043   5.157
 12 B2u  17 B1u  13 B2u  13 B3u  25 Ag   12 B2g  12 B3g   4 Au                 
  5.157   5.202   5.226   5.226   5.532   5.532   5.595   5.595
 18 B1u  19 B1u  26 Ag    8 B1g  13 B2g  13 B3g  14 B3u  14 B2u                
  5.747   5.747   6.773   6.807   6.900   6.900  11.488  19.321
  5 Au   20 B1u  21 B1u  27 Ag   14 B2g  14 B3g  28 Ag   22 B1u                

 Occupation and symmetry of molecular orbitals

 Point group: D2h (8 irreducible representations).

                           Ag   B1g  B2g  B3g  Au   B1u  B2u  B3u   All 
 ------------------------------------------------------------------------
 All molecular orbitals:
  - Alpha                  28   8    14   14   5    22   14   14    119 
  - Beta                   28   8    14   14   5    22   14   14    119 
 ------------------------------------------------------------------------
 Alpha orbitals:
  - Frozen occupied        1    0    0    0    0    1    0    0     2   
  - Active occupied        2    0    0    0    0    1    1    1     5   
  - Active virtual         25   8    14   14   5    20   13   13    112 
  - Frozen virtual         0    0    0    0    0    0    0    0     0   
 ------------------------------------------------------------------------
 Beta orbitals:
  - Frozen occupied        1    0    0    0    0    1    0    0     2   
  - Active occupied        2    0    0    0    0    1    1    1     5   
  - Active virtual         25   8    14   14   5    20   13   13    112 
  - Frozen virtual         0    0    0    0    0    0    0    0     0   
 ------------------------------------------------------------------------

 Import integrals:   CPU 0.00 s  wall 0.00 s

 Import integrals:   CPU 17.37 s  wall 1.60 s

 MP2 amplitudes:   CPU 1.76 s  wall 1.51 s

Running a double precision version
           CCSD T amplitudes will be solved using DIIS.

           Start     Size      MaxIter   EConv     TConv     
           3         7         100       1.00e-06  1.00e-04  
 ------------------------------------------------------------------------------
           Energy (a.u.)   Ediff      Tdiff       Comment
 ------------------------------------------------------------------------------
          -109.36455481                           
     1    -109.34602515   1.85e-02   5.57e-01     
     2    -109.36174354   1.57e-02   8.77e-02     
     3    -109.36011882   1.62e-03   3.21e-02     
     4    -109.36158678   1.47e-03   8.40e-03     Switched to DIIS steps.
     5    -109.36194809   3.61e-04   7.51e-03     
     6    -109.36195454   6.45e-06   1.18e-03     
     7    -109.36195499   4.48e-07   1.93e-04     
     8    -109.36195558   5.94e-07   6.29e-05     
 ------------------------------------------------------------------------------
          -109.36195558                           CCSD T converged.

End of double precision
 SCF energy                 = -108.98486747
 MP2 energy                 = -109.36455481
 CCSD correlation energy    =   -0.37708811
 CCSD total energy          = -109.36195558

 CCSD  T1^2 = 0.0034  T2^2 = 0.1224  Leading amplitudes:

 Amplitude    Orbitals with energies
  0.0158       1 (B3u) A                 ->    7 (B3u) A                  
              -0.6145                          0.8471                     
  0.0158       1 (B3u) B                 ->    7 (B3u) B                  
              -0.6145                          0.8471                     
  0.0158       1 (B2u) A                 ->    7 (B2u) A                  
              -0.6145                          0.8471                     
  0.0158       1 (B2u) B                 ->    7 (B2u) B                  
              -0.6145                          0.8471                     

 Amplitude    Orbitals with energies
 -0.0501       1 (B2u) A     1 (B2u) B   ->    3 (B3g) A     3 (B3g) B    
              -0.6145       -0.6145            0.1730        0.1730       
  0.0501       1 (B2u) A     1 (B2u) B   ->    3 (B3g) B     3 (B3g) A    
              -0.6145       -0.6145            0.1730        0.1730       
  0.0501       1 (B2u) B     1 (B2u) A   ->    3 (B3g) A     3 (B3g) B    
              -0.6145       -0.6145            0.1730        0.1730       
 -0.0501       1 (B2u) B     1 (B2u) A   ->    3 (B3g) B     3 (B3g) A    
              -0.6145       -0.6145            0.1730        0.1730       
 -0.0501       1 (B3u) A     1 (B3u) B   ->    3 (B2g) A     3 (B2g) B    
              -0.6145       -0.6145            0.1730        0.1730       
  0.0501       1 (B3u) A     1 (B3u) B   ->    3 (B2g) B     3 (B2g) A    
              -0.6145       -0.6145            0.1730        0.1730       
  0.0501       1 (B3u) B     1 (B3u) A   ->    3 (B2g) A     3 (B2g) B    
              -0.6145       -0.6145            0.1730        0.1730       
 -0.0501       1 (B3u) B     1 (B3u) A   ->    3 (B2g) B     3 (B2g) A    
              -0.6145       -0.6145            0.1730        0.1730       

 Computing CCSD intermediates for later calculations in double precision
 Finished.

Running a double precision version
           CCSD Lambda amplitudes will be solved using DIIS.
           Start     Size      MaxIter   EConv     LConv     
           3         7         100       1.00e-06  1.00e-04  
 ------------------------------------------------------------------------------
            Enorm      Ldiff       Comment
 ------------------------------------------------------------------------------
     1     3.25e-02   2.53e-02     
     2     5.98e-03   1.82e-03     
     3     1.88e-03   9.00e-04     
     4     5.74e-04   3.94e-04     Switched to DIIS steps.
     5     1.85e-04   1.18e-04     
     6     5.06e-05   4.40e-05     
     7     1.50e-05   8.35e-06     
     8     3.37e-06   2.54e-06     
     9     9.13e-07   2.76e-07     
 ------------------------------------------------------------------------------
                                   CCSD Lambda converged.

 CCSD calculation:   CPU 76.60 s  wall 12.59 s

        Solving for EOMEA-CCSD/MP2 B2g transitions.

Running a double precision version
      EOMEA-CCSD/MP2 right amplitudes will be solved using Davidson.
        Amplitudes will be solved using standard  algorithm.
     Hard-coded thresholds: 
     LinDepThresh=1.00e-15  NormThresh=1.00e-06  ReorthogonThresh=1.00e-02

      Roots     MaxVec    MaxIter   Precond   Conv      Shift    
      10        120       60        1         1.00e-05  0.00e+00  
 ------------------------------------------------------------------------------
      Iter ConvRoots NVecs ResNorm Current eigenvalues (eV)
 ------------------------------------------------------------------------------
      0    0      10    9.72e-02   1.3462   3.5138   5.6132   8.9743   14.9549   19.6879   33.6175   46.8423   49.6147   70.9745   
      1    0      20    2.27e-01   1.3318   3.1789   4.6743   8.4839   14.5182   19.2403   32.4646   33.7198   38.1749   46.1747   
      2    0      30    5.33e-02   1.3182   2.5868   4.1475   8.1710   14.1325   18.8367   21.6619   24.7363   25.0217   25.7551   
      3    1      40    1.75e-02   1.3175*  2.5561   4.1311   8.1489   13.9360   15.4505   17.0539   18.0593   18.9067   18.9624   
      4    3      49    1.04e-02   1.3175*  2.5537*  4.1296*  8.1450   12.6964   13.2148   14.1539   14.9836   15.6463   15.8511   
      5    4      56    5.59e-03   1.3175*  2.5537*  4.1296*  8.1448*  11.1497   11.9157   12.4293   13.6236   14.0162   14.5502   
      6    4      62    4.24e-03   1.3175*  2.5537*  4.1296*  8.1449*  10.4441   11.4248   12.3216   12.9873   13.1342   14.0638   
      7    4      68    6.83e-03   1.3175*  2.5537*  4.1296*  8.1448*  10.2109   11.0344   12.0293   12.2830   12.3600   13.3819   
      8    4      74    3.35e-03   1.3175*  2.5537*  4.1296*  8.1448*  10.1037   10.6932   11.5028   11.5913   12.2818   12.5358   
      9    4      80    4.00e-03   1.3175*  2.5537*  4.1296*  8.1448*  10.0602   10.4270   11.1604   11.4845   11.9016   12.0724   
      10   4      86    1.80e-03   1.3175*  2.5537*  4.1296*  8.1448*  10.0360   10.1672   10.9131   11.4385   11.5100   11.6573   
      11   4      92    7.83e-04   1.3175*  2.5537*  4.1296*  8.1448*  10.0303   10.0716   10.8443   11.3484   11.3920   11.4962   
      12   5      98    4.81e-04   1.3175*  2.5537*  4.1296*  8.1448*  10.0296*  10.0431   10.8325   11.1792   11.3679   11.4790   
      13   5      103   5.09e-04   1.3175*  2.5537*  4.1296*  8.1448*  10.0293*  10.0340   10.8291   11.0049   11.3643   11.4494   
      14   5      108   1.72e-04   1.3175*  2.5537*  4.1296*  8.1448*  10.0290*  10.0318   10.8274   10.8973   11.3625   11.4131   
      15   7      113   9.65e-05   1.3175*  2.5537*  4.1296*  8.1448*  10.0288*  10.0312*  10.8266   10.8584   11.3617*  11.3985   
      16   7      116   6.60e-05   1.3175*  2.5537*  4.1296*  8.1448*  10.0287*  10.0310*  10.8255   10.8338   11.3616*  11.3899   
      17   7      119   5.06e-05   1.3175*  2.5537*  4.1296*  8.1448*  10.0287*  10.0310*  10.8174   10.8270   11.3616*  11.3818   
      18   8      120   3.36e-05   1.3175*  2.5537*  4.1296*  8.1448*  10.0287*  10.0309*  10.8110   10.8267*  11.3616*  11.3779   
      19   8      12    2.10e-05   1.3175*  2.5537*  4.1296*  8.1448*  10.0287*  10.0309*  10.8088   10.8266*  11.3616*  11.3739   
      20   8      14    1.02e-05   1.3175*  2.5537*  4.1296*  8.1448*  10.0287*  10.0309*  10.8068   10.8266*  11.3616*  11.3710   
      21   8      16    5.61e-06   1.3175*  2.5537*  4.1296*  8.1448*  10.0287*  10.0309*  10.8056   10.8266*  11.3615*  11.3694   
      22   8      18    5.04e-06   1.3175*  2.5537*  4.1296*  8.1448*  10.0287*  10.0309*  10.8050   10.8266*  11.3615*  11.3684   
      23   9      20    4.74e-06   1.3175*  2.5537*  4.1296*  8.1448*  10.0287*  10.0309*  10.8046*  10.8266*  11.3615*  11.3673   
      24   9      21    5.69e-06   1.3175*  2.5537*  4.1296*  8.1448*  10.0287*  10.0309*  10.8046*  10.8266*  11.3615*  11.3660   
      25   9      22    5.93e-06   1.3175*  2.5537*  4.1296*  8.1448*  10.0287*  10.0309*  10.8046*  10.8266*  11.3615*  11.3643   
      26   8      23    5.60e-06   1.3175*  2.5537*  4.1296*  8.1448*  10.0287*  10.0309*  10.8045*  10.8266*  11.3613   11.3628   
      27   9      25    4.21e-06   1.3175*  2.5537*  4.1296*  8.1448*  10.0287*  10.0309*  10.8045*  10.8266*  11.3606   11.3619*  
      28   9      26    2.47e-06   1.3175*  2.5537*  4.1296*  8.1448*  10.0287*  10.0309*  10.8045*  10.8266*  11.3599   11.3618*  
      29   10     27    1.75e-06   1.3175*  2.5537*  4.1296*  8.1448*  10.0287*  10.0309*  10.8045*  10.8266*  11.3595*  11.3617*  

     Davidson procedure converged

 EOMEA transition 1/B2g
 Total energy = -109.31353936 a.u.  Excitation energy = 1.3175 eV.
 R1^2 = 0.9984  R2^2 = 0.0016  Res^2 = 5.63e-08
 Conv-d = yes

 Amplitude    Transitions between orbitals
 -0.9969       infty       ->    1 (B2g) B                  
  0.0577       infty       ->    2 (B2g) B                  
  0.0345       infty       ->    3 (B2g) B                  
 -0.0074       infty       ->    4 (B2g) B                  

              Summary of significant orbitals:

               Number  Type             Irrep      Energy
               16      Vir  Beta        1 (B2g)      0.0493
               25      Vir  Beta        2 (B2g)      0.1189
               30      Vir  Beta        3 (B2g)      0.1730
               37      Vir  Beta        4 (B2g)      0.3156


 EOMEA transition 2/B2g
 Total energy = -109.26810782 a.u.  Excitation energy = 2.5537 eV.
 R1^2 = 0.9555  R2^2 = 0.0445  Res^2 = 1.05e-06
 Conv-d = yes

 Amplitude    Transitions between orbitals
 -0.9028       infty       ->    2 (B2g) B                  
 -0.3586       infty       ->    3 (B2g) B                  
  0.0735       infty       ->    4 (B2g) B                  
 -0.0705       infty       ->    1 (B2g) B                  

              Summary of significant orbitals:

               Number  Type             Irrep      Energy
               16      Vir  Beta        1 (B2g)      0.0493
               25      Vir  Beta        2 (B2g)      0.1189
               30      Vir  Beta        3 (B2g)      0.1730
               37      Vir  Beta        4 (B2g)      0.3156


 EOMEA transition 3/B2g
 Total energy = -109.21019448 a.u.  Excitation energy = 4.1296 eV.
 R1^2 = 0.9805  R2^2 = 0.0195  Res^2 = 3.70e-07
 Conv-d = yes

 Amplitude    Transitions between orbitals
 -0.9054       infty       ->    3 (B2g) B                  
  0.3904       infty       ->    2 (B2g) B                  
  0.0826       infty       ->    4 (B2g) B                  
  0.0309       infty       ->    5 (B2g) B                  

              Summary of significant orbitals:

               Number  Type             Irrep      Energy
               25      Vir  Beta        2 (B2g)      0.1189
               30      Vir  Beta        3 (B2g)      0.1730
               37      Vir  Beta        4 (B2g)      0.3156
               43      Vir  Beta        5 (B2g)      0.5425


 EOMEA transition 4/B2g
 Total energy = -109.06263904 a.u.  Excitation energy = 8.1448 eV.
 R1^2 = 0.9779  R2^2 = 0.0221  Res^2 = 5.71e-07
 Conv-d = yes

 Amplitude    Transitions between orbitals
  0.9760       infty       ->    4 (B2g) B                  
  0.1314       infty       ->    3 (B2g) B                  
  0.0634       infty       ->    5 (B2g) B                  
  0.0503       infty       ->    2 (B2g) B                  

              Summary of significant orbitals:

               Number  Type             Irrep      Energy
               25      Vir  Beta        2 (B2g)      0.1189
               30      Vir  Beta        3 (B2g)      0.1730
               37      Vir  Beta        4 (B2g)      0.3156
               43      Vir  Beta        5 (B2g)      0.5425


 EOMEA transition 5/B2g
 Total energy = -108.99340824 a.u.  Excitation energy = 10.0287 eV.
 R1^2 = 0.0000  R2^2 = 1.0000  Res^2 = 4.75e-07
 Conv-d = yes

 Amplitude    Transitions between orbitals
  0.2829       1 (B3u) B   ->    3 (B2g) B     2 (B3u) B    
 -0.2829       1 (B3u) B   ->    2 (B3u) B     3 (B2g) B    
 -0.2828       1 (B3u) A   ->    3 (B2g) A     2 (B3u) B    
  0.2828       1 (B3u) A   ->    2 (B3u) B     3 (B2g) A    
  0.2823       1 (B2u) A   ->    3 (B3g) A     2 (B3u) B    
 -0.2823       1 (B2u) A   ->    2 (B3u) B     3 (B3g) A    
 -0.2822       1 (B2u) B   ->    3 (B3g) B     2 (B3u) B    
  0.2822       1 (B2u) B   ->    2 (B3u) B     3 (B3g) B    
 -0.2788       1 (B2u) A   ->    2 (B3u) A     3 (B3g) B    
  0.2788       1 (B2u) A   ->    3 (B3g) B     2 (B3u) A    
  0.2782       1 (B3u) A   ->    2 (B3u) A     3 (B2g) B    
 -0.2782       1 (B3u) A   ->    3 (B2g) B     2 (B3u) A    
  0.2539       1 (B3u) B   ->    2 (B2g) B     2 (B3u) B    
 -0.2539       1 (B3u) B   ->    2 (B3u) B     2 (B2g) B    
 -0.2539       1 (B3u) A   ->    2 (B2g) A     2 (B3u) B    
  0.2539       1 (B3u) A   ->    2 (B3u) B     2 (B2g) A    
 -0.2533       1 (B2u) B   ->    2 (B3g) B     2 (B3u) B    
  0.2533       1 (B2u) B   ->    2 (B3u) B     2 (B3g) B    
  0.2533       1 (B2u) A   ->    2 (B3g) A     2 (B3u) B    
 -0.2533       1 (B2u) A   ->    2 (B3u) B     2 (B3g) A    
 -0.2502       1 (B2u) A   ->    2 (B3u) A     2 (B3g) B    
  0.2502       1 (B2u) A   ->    2 (B3g) B     2 (B3u) A    
  0.2495       1 (B3u) A   ->    2 (B3u) A     2 (B2g) B    
 -0.2495       1 (B3u) A   ->    2 (B2g) B     2 (B3u) A    
 -0.1214       1 (B3u) B   ->    4 (B2g) B     2 (B3u) B    
  0.1214       1 (B3u) B   ->    2 (B3u) B     4 (B2g) B    
  0.1214       1 (B3u) A   ->    4 (B2g) A     2 (B3u) B    
 -0.1214       1 (B3u) A   ->    2 (B3u) B     4 (B2g) A    
 -0.1211       1 (B2u) B   ->    4 (B3g) B     2 (B3u) B    
  0.1211       1 (B2u) B   ->    2 (B3u) B     4 (B3g) B    
  0.1211       1 (B2u) A   ->    4 (B3g) A     2 (B3u) B    
 -0.1211       1 (B2u) A   ->    2 (B3u) B     4 (B3g) A    
 -0.1196       1 (B2u) A   ->    2 (B3u) A     4 (B3g) B    
  0.1196       1 (B2u) A   ->    4 (B3g) B     2 (B3u) A    
 -0.1195       1 (B3u) A   ->    2 (B3u) A     4 (B2g) B    
  0.1195       1 (B3u) A   ->    4 (B2g) B     2 (B3u) A    

              Summary of significant orbitals:

               Number  Type             Irrep      Energy
               7       Occ  Alpha       1 (B2u)     -0.6145
               6       Occ  Alpha       1 (B3u)     -0.6145
               7       Occ  Beta        1 (B2u)     -0.6145
               6       Occ  Beta        1 (B3u)     -0.6145
               25      Vir  Alpha       2 (B2g)      0.1189
               30      Vir  Alpha       3 (B2g)      0.1730
               37      Vir  Alpha       4 (B2g)      0.3156
               26      Vir  Alpha       2 (B3g)      0.1189
               31      Vir  Alpha       3 (B3g)      0.1730
               38      Vir  Alpha       4 (B3g)      0.3156
               9       Vir  Alpha       2 (B3u)      0.0118
               25      Vir  Beta        2 (B2g)      0.1189
               30      Vir  Beta        3 (B2g)      0.1730
               37      Vir  Beta        4 (B2g)      0.3156
               26      Vir  Beta        2 (B3g)      0.1189
               31      Vir  Beta        3 (B3g)      0.1730
               38      Vir  Beta        4 (B3g)      0.3156
               9       Vir  Beta        2 (B3u)      0.0118


 EOMEA transition 6/B2g
 Total energy = -108.99332577 a.u.  Excitation energy = 10.0309 eV.
 R1^2 = 0.0002  R2^2 = 0.9998  Res^2 = 2.97e-07
 Conv-d = yes

 Amplitude    Transitions between orbitals
 -0.3990       1 (B2u) A   ->    2 (B3u) A     3 (B3g) B    
  0.3990       1 (B2u) A   ->    3 (B3g) B     2 (B3u) A    
  0.3979       1 (B3u) A   ->    2 (B3u) A     3 (B2g) B    
 -0.3979       1 (B3u) A   ->    3 (B2g) B     2 (B3u) A    
 -0.3581       1 (B2u) A   ->    2 (B3u) A     2 (B3g) B    
  0.3581       1 (B2u) A   ->    2 (B3g) B     2 (B3u) A    
  0.3568       1 (B3u) A   ->    2 (B3u) A     2 (B2g) B    
 -0.3568       1 (B3u) A   ->    2 (B2g) B     2 (B3u) A    
  0.1984       1 (B2u) B   ->    3 (B3g) B     2 (B3u) B    
 -0.1984       1 (B2u) B   ->    2 (B3u) B     3 (B3g) B    
 -0.1983       1 (B2u) A   ->    3 (B3g) A     2 (B3u) B    
  0.1983       1 (B2u) A   ->    2 (B3u) B     3 (B3g) A    
  0.1981       1 (B3u) A   ->    3 (B2g) A     2 (B3u) B    
 -0.1981       1 (B3u) A   ->    2 (B3u) B     3 (B2g) A    
 -0.1980       1 (B3u) B   ->    3 (B2g) B     2 (B3u) B    
  0.1980       1 (B3u) B   ->    2 (B3u) B     3 (B2g) B    
  0.1781       1 (B2u) B   ->    2 (B3g) B     2 (B3u) B    
 -0.1781       1 (B2u) B   ->    2 (B3u) B     2 (B3g) B    
 -0.1780       1 (B2u) A   ->    2 (B3g) A     2 (B3u) B    
  0.1780       1 (B2u) A   ->    2 (B3u) B     2 (B3g) A    
 -0.1776       1 (B3u) B   ->    2 (B2g) B     2 (B3u) B    
  0.1776       1 (B3u) B   ->    2 (B3u) B     2 (B2g) B    
  0.1776       1 (B3u) A   ->    2 (B2g) A     2 (B3u) B    
 -0.1776       1 (B3u) A   ->    2 (B3u) B     2 (B2g) A    
 -0.1711       1 (B2u) A   ->    2 (B3u) A     4 (B3g) B    
  0.1711       1 (B2u) A   ->    4 (B3g) B     2 (B3u) A    
 -0.1709       1 (B3u) A   ->    2 (B3u) A     4 (B2g) B    
  0.1709       1 (B3u) A   ->    4 (B2g) B     2 (B3u) A    

              Summary of significant orbitals:

               Number  Type             Irrep      Energy
               7       Occ  Alpha       1 (B2u)     -0.6145
               6       Occ  Alpha       1 (B3u)     -0.6145
               7       Occ  Beta        1 (B2u)     -0.6145
               6       Occ  Beta        1 (B3u)     -0.6145
               25      Vir  Alpha       2 (B2g)      0.1189
               30      Vir  Alpha       3 (B2g)      0.1730
               26      Vir  Alpha       2 (B3g)      0.1189
               31      Vir  Alpha       3 (B3g)      0.1730
               9       Vir  Alpha       2 (B3u)      0.0118
               25      Vir  Beta        2 (B2g)      0.1189
               30      Vir  Beta        3 (B2g)      0.1730
               37      Vir  Beta        4 (B2g)      0.3156
               26      Vir  Beta        2 (B3g)      0.1189
               31      Vir  Beta        3 (B3g)      0.1730
               38      Vir  Beta        4 (B3g)      0.3156
               9       Vir  Beta        2 (B3u)      0.0118


 EOMEA transition 7/B2g
 Total energy = -108.96489909 a.u.  Excitation energy = 10.8045 eV.
 R1^2 = 0.0000  R2^2 = 1.0000  Res^2 = 4.62e-06
 Conv-d = yes

 Amplitude    Transitions between orbitals
  0.2827       1 (B3u) A   ->    3 (B3u) A     3 (B2g) B    
 -0.2827       1 (B3u) A   ->    3 (B2g) B     3 (B3u) A    
  0.2825       1 (B3u) B   ->    3 (B2g) B     3 (B3u) B    
 -0.2825       1 (B3u) B   ->    3 (B3u) B     3 (B2g) B    
 -0.2823       1 (B3u) A   ->    3 (B2g) A     3 (B3u) B    
  0.2823       1 (B3u) A   ->    3 (B3u) B     3 (B2g) A    
  0.2780       1 (B2u) A   ->    3 (B3g) A     3 (B3u) B    
 -0.2780       1 (B2u) A   ->    3 (B3u) B     3 (B3g) A    
 -0.2777       1 (B2u) B   ->    3 (B3g) B     3 (B3u) B    
  0.2777       1 (B2u) B   ->    3 (B3u) B     3 (B3g) B    
 -0.2766       1 (B2u) A   ->    3 (B3u) A     3 (B3g) B    
  0.2766       1 (B2u) A   ->    3 (B3g) B     3 (B3u) A    
  0.2549       1 (B3u) A   ->    3 (B3u) A     2 (B2g) B    
 -0.2549       1 (B3u) A   ->    2 (B2g) B     3 (B3u) A    
  0.2549       1 (B3u) B   ->    2 (B2g) B     3 (B3u) B    
 -0.2549       1 (B3u) B   ->    3 (B3u) B     2 (B2g) B    
 -0.2546       1 (B3u) A   ->    2 (B2g) A     3 (B3u) B    
  0.2546       1 (B3u) A   ->    3 (B3u) B     2 (B2g) A    
  0.2504       1 (B2u) A   ->    2 (B3g) A     3 (B3u) B    
 -0.2504       1 (B2u) A   ->    3 (B3u) B     2 (B3g) A    
 -0.2501       1 (B2u) B   ->    2 (B3g) B     3 (B3u) B    
  0.2501       1 (B2u) B   ->    3 (B3u) B     2 (B3g) B    
 -0.2490       1 (B2u) A   ->    3 (B3u) A     2 (B3g) B    
  0.2490       1 (B2u) A   ->    2 (B3g) B     3 (B3u) A    
 -0.1210       1 (B3u) A   ->    3 (B3u) A     4 (B2g) B    
  0.1210       1 (B3u) A   ->    4 (B2g) B     3 (B3u) A    
 -0.1209       1 (B3u) B   ->    4 (B2g) B     3 (B3u) B    
  0.1209       1 (B3u) B   ->    3 (B3u) B     4 (B2g) B    
  0.1208       1 (B3u) A   ->    4 (B2g) A     3 (B3u) B    
 -0.1208       1 (B3u) A   ->    3 (B3u) B     4 (B2g) A    
  0.1189       1 (B2u) A   ->    4 (B3g) A     3 (B3u) B    
 -0.1189       1 (B2u) A   ->    3 (B3u) B     4 (B3g) A    
 -0.1188       1 (B2u) B   ->    4 (B3g) B     3 (B3u) B    
  0.1188       1 (B2u) B   ->    3 (B3u) B     4 (B3g) B    
 -0.1183       1 (B2u) A   ->    3 (B3u) A     4 (B3g) B    
  0.1183       1 (B2u) A   ->    4 (B3g) B     3 (B3u) A    

              Summary of significant orbitals:

               Number  Type             Irrep      Energy
               7       Occ  Alpha       1 (B2u)     -0.6145
               6       Occ  Alpha       1 (B3u)     -0.6145
               7       Occ  Beta        1 (B2u)     -0.6145
               6       Occ  Beta        1 (B3u)     -0.6145
               25      Vir  Alpha       2 (B2g)      0.1189
               30      Vir  Alpha       3 (B2g)      0.1730
               37      Vir  Alpha       4 (B2g)      0.3156
               26      Vir  Alpha       2 (B3g)      0.1189
               31      Vir  Alpha       3 (B3g)      0.1730
               38      Vir  Alpha       4 (B3g)      0.3156
               12      Vir  Alpha       3 (B3u)      0.0411
               25      Vir  Beta        2 (B2g)      0.1189
               30      Vir  Beta        3 (B2g)      0.1730
               37      Vir  Beta        4 (B2g)      0.3156
               26      Vir  Beta        2 (B3g)      0.1189
               31      Vir  Beta        3 (B3g)      0.1730
               38      Vir  Beta        4 (B3g)      0.3156
               12      Vir  Beta        3 (B3u)      0.0411


 EOMEA transition 8/B2g
 Total energy = -108.96408670 a.u.  Excitation energy = 10.8266 eV.
 R1^2 = 0.0017  R2^2 = 0.9983  Res^2 = 1.01e-07
 Conv-d = yes

 Amplitude    Transitions between orbitals
 -0.3998       1 (B2u) A   ->    3 (B3u) A     3 (B3g) B    
  0.3998       1 (B2u) A   ->    3 (B3g) B     3 (B3u) A    
  0.3945       1 (B3u) A   ->    3 (B3u) A     3 (B2g) B    
 -0.3945       1 (B3u) A   ->    3 (B2g) B     3 (B3u) A    
 -0.3599       1 (B2u) A   ->    3 (B3u) A     2 (B3g) B    
  0.3599       1 (B2u) A   ->    2 (B3g) B     3 (B3u) A    
  0.3540       1 (B3u) A   ->    3 (B3u) A     2 (B2g) B    
 -0.3540       1 (B3u) A   ->    2 (B2g) B     3 (B3u) A    
  0.1999       1 (B2u) B   ->    3 (B3g) B     3 (B3u) B    
 -0.1999       1 (B2u) B   ->    3 (B3u) B     3 (B3g) B    
 -0.1994       1 (B2u) A   ->    3 (B3g) A     3 (B3u) B    
  0.1994       1 (B2u) A   ->    3 (B3u) B     3 (B3g) A    
  0.1977       1 (B3u) A   ->    3 (B2g) A     3 (B3u) B    
 -0.1977       1 (B3u) A   ->    3 (B3u) B     3 (B2g) A    
 -0.1962       1 (B3u) B   ->    3 (B2g) B     3 (B3u) B    
  0.1962       1 (B3u) B   ->    3 (B3u) B     3 (B2g) B    
  0.1799       1 (B2u) B   ->    2 (B3g) B     3 (B3u) B    
 -0.1799       1 (B2u) B   ->    3 (B3u) B     2 (B3g) B    
 -0.1794       1 (B2u) A   ->    2 (B3g) A     3 (B3u) B    
  0.1794       1 (B2u) A   ->    3 (B3u) B     2 (B3g) A    
 -0.1767       1 (B3u) B   ->    2 (B2g) B     3 (B3u) B    
  0.1767       1 (B3u) B   ->    3 (B3u) B     2 (B2g) B    
  0.1767       1 (B3u) A   ->    2 (B2g) A     3 (B3u) B    
 -0.1767       1 (B3u) A   ->    3 (B3u) B     2 (B2g) A    
 -0.1708       1 (B2u) A   ->    3 (B3u) A     4 (B3g) B    
  0.1708       1 (B2u) A   ->    4 (B3g) B     3 (B3u) A    
 -0.1689       1 (B3u) A   ->    3 (B3u) A     4 (B2g) B    
  0.1689       1 (B3u) A   ->    4 (B2g) B     3 (B3u) A    

              Summary of significant orbitals:

               Number  Type             Irrep      Energy
               7       Occ  Alpha       1 (B2u)     -0.6145
               6       Occ  Alpha       1 (B3u)     -0.6145
               7       Occ  Beta        1 (B2u)     -0.6145
               6       Occ  Beta        1 (B3u)     -0.6145
               25      Vir  Alpha       2 (B2g)      0.1189
               30      Vir  Alpha       3 (B2g)      0.1730
               26      Vir  Alpha       2 (B3g)      0.1189
               31      Vir  Alpha       3 (B3g)      0.1730
               12      Vir  Alpha       3 (B3u)      0.0411
               25      Vir  Beta        2 (B2g)      0.1189
               30      Vir  Beta        3 (B2g)      0.1730
               37      Vir  Beta        4 (B2g)      0.3156
               26      Vir  Beta        2 (B3g)      0.1189
               31      Vir  Beta        3 (B3g)      0.1730
               38      Vir  Beta        4 (B3g)      0.3156
               12      Vir  Beta        3 (B3u)      0.0411


 EOMEA transition 9/B2g
 Total energy = -108.94450265 a.u.  Excitation energy = 11.3595 eV.
 R1^2 = 0.0001  R2^2 = 0.9999  Res^2 = 7.52e-06
 Conv-d = yes

 Amplitude    Transitions between orbitals
  0.3103       1 (B2u) A   ->    2 (B3u) A     3 (B3g) B    
 -0.3103       1 (B2u) A   ->    3 (B3g) B     2 (B3u) A    
  0.3077       1 (B3u) A   ->    2 (B3u) A     3 (B2g) B    
 -0.3077       1 (B3u) A   ->    3 (B2g) B     2 (B3u) A    
  0.2886       1 (B2u) A   ->    2 (B3u) A     2 (B3g) B    
 -0.2886       1 (B2u) A   ->    2 (B3g) B     2 (B3u) A    
  0.2861       1 (B3u) A   ->    2 (B3u) A     2 (B2g) B    
 -0.2861       1 (B3u) A   ->    2 (B2g) B     2 (B3u) A    
  0.2124       1 (B2u) B   ->    3 (B3g) B     2 (B3u) B    
 -0.2124       1 (B2u) B   ->    2 (B3u) B     3 (B3g) B    
 -0.2123       1 (B2u) A   ->    3 (B3g) A     2 (B3u) B    
  0.2123       1 (B2u) A   ->    2 (B3u) B     3 (B3g) A    
  0.2109       1 (B3u) B   ->    3 (B2g) B     2 (B3u) B    
 -0.2109       1 (B3u) B   ->    2 (B3u) B     3 (B2g) B    
 -0.2109       1 (B3u) A   ->    3 (B2g) A     2 (B3u) B    
  0.2109       1 (B3u) A   ->    2 (B3u) B     3 (B2g) A    
 -0.1974       1 (B2u) A   ->    2 (B3g) A     2 (B3u) B    
  0.1974       1 (B2u) A   ->    2 (B3u) B     2 (B3g) A    
  0.1972       1 (B2u) B   ->    2 (B3g) B     2 (B3u) B    
 -0.1972       1 (B2u) B   ->    2 (B3u) B     2 (B3g) B    
 -0.1960       1 (B3u) A   ->    2 (B2g) A     2 (B3u) B    
  0.1960       1 (B3u) A   ->    2 (B3u) B     2 (B2g) A    
  0.1960       1 (B3u) B   ->    2 (B2g) B     2 (B3u) B    
 -0.1960       1 (B3u) B   ->    2 (B3u) B     2 (B2g) B    
  0.1851       1 (B2u) A   ->    2 (B2u) A     3 (B2g) B    
 -0.1851       1 (B2u) A   ->    3 (B2g) B     2 (B2u) A    
 -0.1794       1 (B3u) A   ->    2 (B2u) A     3 (B3g) B    
  0.1794       1 (B3u) A   ->    3 (B3g) B     2 (B2u) A    
  0.1724       1 (B2u) A   ->    2 (B2u) A     2 (B2g) B    
 -0.1724       1 (B2u) A   ->    2 (B2g) B     2 (B2u) A    
 -0.1666       1 (B3u) A   ->    2 (B2u) A     2 (B3g) B    
  0.1666       1 (B3u) A   ->    2 (B3g) B     2 (B2u) A    
  0.1247       1 (B2u) A   ->    2 (B3u) A     4 (B3g) B    
 -0.1247       1 (B2u) A   ->    4 (B3g) B     2 (B3u) A    
 -0.1237       1 (B3u) A   ->    2 (B3u) A     4 (B2g) B    
  0.1237       1 (B3u) A   ->    4 (B2g) B     2 (B3u) A    
  0.1185       3 (Ag) A    ->    4 (Ag) A      3 (B2g) B    
 -0.1185       3 (Ag) A    ->    3 (B2g) B     4 (Ag) A     
  0.1124       3 (Ag) A    ->    4 (Ag) A      2 (B2g) B    
 -0.1124       3 (Ag) A    ->    2 (B2g) B     4 (Ag) A     

              Summary of significant orbitals:

               Number  Type             Irrep      Energy
               5       Occ  Alpha       3 (Ag)     -0.6345
               7       Occ  Alpha       1 (B2u)     -0.6145
               6       Occ  Alpha       1 (B3u)     -0.6145
               7       Occ  Beta        1 (B2u)     -0.6145
               6       Occ  Beta        1 (B3u)     -0.6145
               8       Vir  Alpha       4 (Ag)      0.0090
               25      Vir  Alpha       2 (B2g)      0.1189
               30      Vir  Alpha       3 (B2g)      0.1730
               26      Vir  Alpha       2 (B3g)      0.1189
               31      Vir  Alpha       3 (B3g)      0.1730
               10      Vir  Alpha       2 (B2u)      0.0118
               9       Vir  Alpha       2 (B3u)      0.0118
               25      Vir  Beta        2 (B2g)      0.1189
               30      Vir  Beta        3 (B2g)      0.1730
               37      Vir  Beta        4 (B2g)      0.3156
               26      Vir  Beta        2 (B3g)      0.1189
               31      Vir  Beta        3 (B3g)      0.1730
               38      Vir  Beta        4 (B3g)      0.3156
               9       Vir  Beta        2 (B3u)      0.0118


 EOMEA transition 10/B2g
 Total energy = -108.94441941 a.u.  Excitation energy = 11.3617 eV.
 R1^2 = 0.0005  R2^2 = 0.9995  Res^2 = 2.45e-06
 Conv-d = yes

 Amplitude    Transitions between orbitals
  0.2564       1 (B2u) B   ->    3 (B3g) B     2 (B3u) B    
 -0.2564       1 (B2u) B   ->    2 (B3u) B     3 (B3g) B    
 -0.2562       1 (B2u) A   ->    3 (B3g) A     2 (B3u) B    
  0.2562       1 (B2u) A   ->    2 (B3u) B     3 (B3g) A    
  0.2552       1 (B3u) B   ->    3 (B2g) B     2 (B3u) B    
 -0.2552       1 (B3u) B   ->    2 (B3u) B     3 (B2g) B    
 -0.2550       1 (B3u) A   ->    3 (B2g) A     2 (B3u) B    
  0.2550       1 (B3u) A   ->    2 (B3u) B     3 (B2g) A    
  0.2384       1 (B2u) B   ->    2 (B3g) B     2 (B3u) B    
 -0.2384       1 (B2u) B   ->    2 (B3u) B     2 (B3g) B    
 -0.2382       1 (B2u) A   ->    2 (B3g) A     2 (B3u) B    
  0.2382       1 (B2u) A   ->    2 (B3u) B     2 (B3g) A    
  0.2371       1 (B3u) B   ->    2 (B2g) B     2 (B3u) B    
 -0.2371       1 (B3u) B   ->    2 (B3u) B     2 (B2g) B    
 -0.2369       1 (B3u) A   ->    2 (B2g) A     2 (B3u) B    
  0.2369       1 (B3u) A   ->    2 (B3u) B     2 (B2g) A    
 -0.2357       1 (B2u) A   ->    2 (B2u) A     3 (B2g) B    
  0.2357       1 (B2u) A   ->    3 (B2g) B     2 (B2u) A    
  0.2291       1 (B3u) A   ->    2 (B2u) A     3 (B3g) B    
 -0.2291       1 (B3u) A   ->    3 (B3g) B     2 (B2u) A    
 -0.2194       1 (B2u) A   ->    2 (B2u) A     2 (B2g) B    
  0.2194       1 (B2u) A   ->    2 (B2g) B     2 (B2u) A    
  0.2127       1 (B3u) A   ->    2 (B2u) A     2 (B3g) B    
 -0.2127       1 (B3u) A   ->    2 (B3g) B     2 (B2u) A    
 -0.1935       1 (B2u) A   ->    2 (B3u) A     3 (B3g) B    
  0.1935       1 (B2u) A   ->    3 (B3g) B     2 (B3u) A    
 -0.1922       1 (B3u) A   ->    2 (B3u) A     3 (B2g) B    
  0.1922       1 (B3u) A   ->    3 (B2g) B     2 (B3u) A    
 -0.1800       1 (B2u) A   ->    2 (B3u) A     2 (B3g) B    
  0.1800       1 (B2u) A   ->    2 (B3g) B     2 (B3u) A    
 -0.1785       1 (B3u) A   ->    2 (B3u) A     2 (B2g) B    
  0.1785       1 (B3u) A   ->    2 (B2g) B     2 (B3u) A    
 -0.1048       3 (Ag) A    ->    4 (Ag) A      3 (B2g) B    
  0.1048       3 (Ag) A    ->    3 (B2g) B     4 (Ag) A     
  0.1029       1 (B2u) B   ->    4 (B3g) B     2 (B3u) B    
 -0.1029       1 (B2u) B   ->    2 (B3u) B     4 (B3g) B    
 -0.1029       1 (B2u) A   ->    4 (B3g) A     2 (B3u) B    
  0.1029       1 (B2u) A   ->    2 (B3u) B     4 (B3g) A    
 -0.1026       1 (B3u) B   ->    4 (B2g) B     2 (B3u) B    
  0.1026       1 (B3u) B   ->    2 (B3u) B     4 (B2g) B    
  0.1026       1 (B3u) A   ->    4 (B2g) A     2 (B3u) B    
 -0.1026       1 (B3u) A   ->    2 (B3u) B     4 (B2g) A    

              Summary of significant orbitals:

               Number  Type             Irrep      Energy
               5       Occ  Alpha       3 (Ag)     -0.6345
               7       Occ  Alpha       1 (B2u)     -0.6145
               6       Occ  Alpha       1 (B3u)     -0.6145
               7       Occ  Beta        1 (B2u)     -0.6145
               6       Occ  Beta        1 (B3u)     -0.6145
               8       Vir  Alpha       4 (Ag)      0.0090
               25      Vir  Alpha       2 (B2g)      0.1189
               30      Vir  Alpha       3 (B2g)      0.1730
               37      Vir  Alpha       4 (B2g)      0.3156
               26      Vir  Alpha       2 (B3g)      0.1189
               31      Vir  Alpha       3 (B3g)      0.1730
               38      Vir  Alpha       4 (B3g)      0.3156
               10      Vir  Alpha       2 (B2u)      0.0118
               9       Vir  Alpha       2 (B3u)      0.0118
               25      Vir  Beta        2 (B2g)      0.1189
               30      Vir  Beta        3 (B2g)      0.1730
               37      Vir  Beta        4 (B2g)      0.3156
               26      Vir  Beta        2 (B3g)      0.1189
               31      Vir  Beta        3 (B3g)      0.1730
               38      Vir  Beta        4 (B3g)      0.3156
               9       Vir  Beta        2 (B3u)      0.0118


 EEs and amplitudes of EOMEA can not be exported to fchk file
Running a double precision version
      EOMEA-CCSD/MP2 left amplitudes will be solved using Davidson.
        Amplitudes will be solved using MOM  algorithm.
     Hard-coded thresholds: 
     LinDepThresh=1.00e-15  NormThresh=1.00e-06  ReorthogonThresh=1.00e-02

      Roots     MaxVec    MaxIter   Precond   Conv      Shift    
      10        120       60        1         1.00e-05  0.00e+00  
 ------------------------------------------------------------------------------
      Iter ConvRoots NVecs ResNorm Current eigenvalues (eV)
 ------------------------------------------------------------------------------
      0    0      10    8.45e-04   1.3175   2.5537   4.1296   8.1448   10.0287   10.0309   10.8045   10.8266   11.3595   11.3617   
      1    0      20    3.33e-04   1.3175   2.5538   4.1296   8.1448   10.0287   10.0309   10.8044   10.8266   11.3594   11.3617   
      2    6      30    3.75e-05   1.3175   2.5538   4.1296   8.1448   10.0287*  10.0309*  10.8044*  10.8266*  11.3593*  11.3617*  
      3    10     34    3.17e-06   1.3175*  2.5538*  4.1296*  8.1448*  10.0287*  10.0309*  10.8044*  10.8266*  11.3593*  11.3617*  

     Davidson procedure converged

 Excited state properties for  EOMEA-CCSD transition 1/B2g
 Dipole moment (a.u.): 0.000000 (X 0.000000, Y 0.000000, Z 0.000000)
 R-squared (a.u.): 170.957136 (XX 63.199123, YY 26.212360, ZZ 81.545654)
 Gauge origin (a.u.): (0.000000, 0.000000, 0.000000)
 Angular momentum (a.u.) against gauge origin: 
 (X 0.000000i, Y 0.000000i, Z 0.000000i)
 Traces of the OPDMs: Tr(AA) 7.000000, Tr(BB) 8.000000

 Excited state properties for  EOMEA-CCSD transition 2/B2g
 Dipole moment (a.u.): 0.000000 (X 0.000000, Y 0.000000, Z 0.000000)
 R-squared (a.u.): 73.587077 (XX 21.974416, YY 13.026201, ZZ 38.586459)
 Gauge origin (a.u.): (0.000000, 0.000000, 0.000000)
 Angular momentum (a.u.) against gauge origin: 
 (X 0.000000i, Y 0.000000i, Z 0.000000i)
 Traces of the OPDMs: Tr(AA) 7.000000, Tr(BB) 8.000000

 Excited state properties for  EOMEA-CCSD transition 3/B2g
 Dipole moment (a.u.): 0.000000 (X 0.000000, Y 0.000000, Z 0.000000)
 R-squared (a.u.): 121.764203 (XX 44.820678, YY 20.302035, ZZ 56.641490)
 Gauge origin (a.u.): (0.000000, 0.000000, 0.000000)
 Angular momentum (a.u.) against gauge origin: 
 (X 0.000000i, Y 0.000000i, Z 0.000000i)
 Traces of the OPDMs: Tr(AA) 7.000000, Tr(BB) 8.000000

 Excited state properties for  EOMEA-CCSD transition 4/B2g
 Dipole moment (a.u.): 0.000000 (X 0.000000, Y 0.000000, Z 0.000000)
 R-squared (a.u.): 103.959298 (XX 35.878999, YY 17.274263, ZZ 50.806037)
 Gauge origin (a.u.): (0.000000, 0.000000, 0.000000)
 Angular momentum (a.u.) against gauge origin: 
 (X 0.000000i, Y 0.000000i, Z 0.000000i)
 Traces of the OPDMs: Tr(AA) 7.000000, Tr(BB) 8.000000

 Excited state properties for  EOMEA-CCSD transition 5/B2g
 Dipole moment (a.u.): 0.000000 (X 0.000000, Y 0.000000, Z 0.000000)
 R-squared (a.u.): 334.956148 (XX 184.582061, YY 66.653334, ZZ 83.720753)
 Gauge origin (a.u.): (0.000000, 0.000000, 0.000000)
 Angular momentum (a.u.) against gauge origin: 
 (X 0.000000i, Y 0.000000i, Z 0.000000i)
 Traces of the OPDMs: Tr(AA) 7.000000, Tr(BB) 8.000000

 Excited state properties for  EOMEA-CCSD transition 6/B2g
 Dipole moment (a.u.): 0.000000 (X 0.000000, Y 0.000000, Z 0.000000)
 R-squared (a.u.): 336.868371 (XX 185.729596, YY 67.035166, ZZ 84.103609)
 Gauge origin (a.u.): (0.000000, 0.000000, 0.000000)
 Angular momentum (a.u.) against gauge origin: 
 (X 0.000000i, Y 0.000000i, Z 0.000000i)
 Traces of the OPDMs: Tr(AA) 7.000000, Tr(BB) 8.000000

 Excited state properties for  EOMEA-CCSD transition 7/B2g
 Dipole moment (a.u.): 0.000000 (X 0.000000, Y 0.000000, Z 0.000000)
 R-squared (a.u.): 242.043688 (XX 128.558715, YY 48.048795, ZZ 65.436178)
 Gauge origin (a.u.): (0.000000, 0.000000, 0.000000)
 Angular momentum (a.u.) against gauge origin: 
 (X 0.000000i, Y 0.000000i, Z 0.000000i)
 Traces of the OPDMs: Tr(AA) 7.000000, Tr(BB) 8.000000

 Excited state properties for  EOMEA-CCSD transition 8/B2g
 Dipole moment (a.u.): 0.000000 (X 0.000000, Y 0.000000, Z 0.000000)
 R-squared (a.u.): 244.388573 (XX 130.018100, YY 48.476205, ZZ 65.894269)
 Gauge origin (a.u.): (0.000000, 0.000000, 0.000000)
 Angular momentum (a.u.) against gauge origin: 
 (X 0.000000i, Y 0.000000i, Z 0.000000i)
 Traces of the OPDMs: Tr(AA) 7.000000, Tr(BB) 8.000000

 Excited state properties for  EOMEA-CCSD transition 9/B2g
 Dipole moment (a.u.): 0.000000 (X 0.000000, Y 0.000000, Z 0.000000)
 R-squared (a.u.): 331.438961 (XX 159.881327, YY 87.813528, ZZ 83.744105)
 Gauge origin (a.u.): (0.000000, 0.000000, 0.000000)
 Angular momentum (a.u.) against gauge origin: 
 (X 0.000000i, Y 0.000000i, Z 0.000000i)
 Traces of the OPDMs: Tr(AA) 7.000000, Tr(BB) 8.000000

 Excited state properties for  EOMEA-CCSD transition 10/B2g
 Dipole moment (a.u.): 0.000000 (X 0.000000, Y 0.000000, Z 0.000000)
 R-squared (a.u.): 330.803957 (XX 151.621173, YY 95.349763, ZZ 83.833021)
 Gauge origin (a.u.): (0.000000, 0.000000, 0.000000)
 Angular momentum (a.u.) against gauge origin: 
 (X 0.000000i, Y 0.000000i, Z 0.000000i)
 Traces of the OPDMs: Tr(AA) 7.000000, Tr(BB) 8.000000

        Solving for EOMEA-CCSD/MP2 Au transitions.

Warning! Not enough singles to form guess subspace. Doubles guess vectors will be generated.
In case of poor EOM convergence, reduce requested EA_STATES.

Running a double precision version
      EOMEA-CCSD/MP2 right amplitudes will be solved using Davidson.
        Amplitudes will be solved using standard  algorithm.
     Hard-coded thresholds: 
     LinDepThresh=1.00e-15  NormThresh=1.00e-06  ReorthogonThresh=1.00e-02

      Roots     MaxVec    MaxIter   Precond   Conv      Shift    
      10        120       60        1         1.00e-05  0.00e+00  
 ------------------------------------------------------------------------------
      Iter ConvRoots NVecs ResNorm Current eigenvalues (eV)
 ------------------------------------------------------------------------------
      0    0      11    5.84e-02   15.8574   17.6282   17.6288   17.6349   17.6352   17.8456   17.8522   42.8684   63.1588   140.5896   
      1    0      21    4.56e-02   15.4872   17.1887   17.2132   17.2504   17.2883   17.3707   17.4120   18.7029   18.7557   18.9292   
      2    0      31    1.56e-03   15.2293   16.6913   16.7123   16.7234   16.7392   16.7432   16.7856   18.0763   18.0826   18.0930   
      3    0      41    3.30e-03   15.1839   16.4426   16.5128   16.5349   16.5484   16.5660   16.5908   17.5329   17.6095   17.6412   
      4    0      51    3.93e-02   14.3928   14.6433   14.8752   15.1682   15.5547   15.5890   16.1305   16.6338   16.6564   16.7111   
      5    0      61    3.33e-02   12.0150   12.0226   12.8925   13.0223   13.3846   13.7038   14.5507   15.2784   15.9703   16.2209   
      6    0      71    1.21e-02   11.4416   11.6269   11.7419   11.9016   12.2151   13.0638   13.2202   13.3181   13.6384   15.0933   
      7    0      81    4.19e-03   11.3456   11.5585   11.5823   11.6064   11.6307   12.3258   12.8027   12.8552   13.3815   13.6485   
      8    0      91    2.90e-03   11.2967   11.5159   11.5509   11.5522   11.5610   11.7048   12.5859   12.7007   12.8038   13.4516   
      9    0      101   1.45e-03   11.2796   11.4185   11.4236   11.5501   11.5535   11.5724   12.3451   12.5440   12.6718   12.7879   
      10   0      111   1.29e-03   11.2531   11.3103   11.3770   11.5489   11.5502   11.5648   12.2435   12.3861   12.5221   12.7757   
      11   1      120   1.08e-03   11.1963   11.2908   11.3221   11.5485*  11.5488   11.5629   12.0575   12.2066   12.4990   12.7701   
      12   2      19    5.94e-04   11.1793   11.2888   11.2953   11.5485*  11.5485*  11.5626   11.9374   12.1991   12.4905   12.7615   
      13   3      27    1.06e-03   11.1681   11.2527   11.2877   11.5483*  11.5485*  11.5622*  11.7762   12.1926   12.4826   12.7484   
      14   4      34    4.01e-03   11.1639   11.1845   11.2873*  11.5483*  11.5484*  11.5619*  11.5939   12.0178   12.1819   12.4764   
      15   4      40    5.58e-04   11.1620   11.1667   11.2871*  11.3916   11.5483*  11.5484*  11.5618*  11.5660   12.1739   12.4577   
      16   3      46    2.50e-04   11.1612   11.1615   11.2870*  11.3121   11.5483*  11.5484*  11.5617   11.5618   12.1684   12.4353   
      17   5      53    9.52e-05   11.1591   11.1609*  11.2863   11.2870*  11.5483*  11.5484*  11.5607   11.5618*  12.1650   12.3926   
      18   7      58    3.58e-05   11.1587*  11.1608*  11.2817   11.2869*  11.5483*  11.5484*  11.5604*  11.5618*  12.1635   12.3750   
      19   8      61    1.18e-05   11.1586*  11.1608*  11.2809   11.2869*  11.5483*  11.5484*  11.5604*  11.5618*  12.1629*  12.3688   
      20   9      63    6.18e-06   11.1586*  11.1608*  11.2805*  11.2869*  11.5483*  11.5484*  11.5604*  11.5618*  12.1629*  12.3667   
      21   9      64    4.66e-06   11.1586*  11.1608*  11.2805*  11.2869*  11.5483*  11.5484*  11.5604*  11.5618*  12.1628*  12.3658   
      22   10     65    3.28e-06   11.1586*  11.1608*  11.2805*  11.2869*  11.5483*  11.5484*  11.5604*  11.5618*  12.1628*  12.3655*  

     Davidson procedure converged

 EOMEA transition 1/Au
 Total energy = -108.95188466 a.u.  Excitation energy = 11.1586 eV.
 R1^2 = 0.0000  R2^2 = 1.0000  Res^2 = 2.04e-06
 Conv-d = yes

 Amplitude    Transitions between orbitals
 -0.2805       1 (B2u) A   ->    3 (B3g) A     1 (B1g) B    
  0.2805       1 (B2u) A   ->    1 (B1g) B     3 (B3g) A    
  0.2805       1 (B3u) A   ->    3 (B2g) A     1 (B1g) B    
 -0.2805       1 (B3u) A   ->    1 (B1g) B     3 (B2g) A    
 -0.2804       1 (B2u) B   ->    1 (B1g) B     3 (B3g) B    
  0.2804       1 (B2u) B   ->    3 (B3g) B     1 (B1g) B    
  0.2804       1 (B3u) B   ->    1 (B1g) B     3 (B2g) B    
 -0.2804       1 (B3u) B   ->    3 (B2g) B     1 (B1g) B    
 -0.2797       1 (B3u) A   ->    1 (B1g) A     3 (B2g) B    
  0.2797       1 (B3u) A   ->    3 (B2g) B     1 (B1g) A    
  0.2797       1 (B2u) A   ->    1 (B1g) A     3 (B3g) B    
 -0.2797       1 (B2u) A   ->    3 (B3g) B     1 (B1g) A    
 -0.2520       1 (B2u) A   ->    2 (B3g) A     1 (B1g) B    
  0.2520       1 (B2u) A   ->    1 (B1g) B     2 (B3g) A    
  0.2520       1 (B3u) A   ->    2 (B2g) A     1 (B1g) B    
 -0.2520       1 (B3u) A   ->    1 (B1g) B     2 (B2g) A    
 -0.2520       1 (B2u) B   ->    1 (B1g) B     2 (B3g) B    
  0.2520       1 (B2u) B   ->    2 (B3g) B     1 (B1g) B    
  0.2520       1 (B3u) B   ->    1 (B1g) B     2 (B2g) B    
 -0.2520       1 (B3u) B   ->    2 (B2g) B     1 (B1g) B    
 -0.2512       1 (B3u) A   ->    1 (B1g) A     2 (B2g) B    
  0.2512       1 (B3u) A   ->    2 (B2g) B     1 (B1g) A    
  0.2512       1 (B2u) A   ->    1 (B1g) A     2 (B3g) B    
 -0.2512       1 (B2u) A   ->    2 (B3g) B     1 (B1g) A    
 -0.1203       1 (B2u) B   ->    1 (B1g) B     4 (B3g) B    
  0.1203       1 (B2u) B   ->    4 (B3g) B     1 (B1g) B    
 -0.1203       1 (B3u) B   ->    1 (B1g) B     4 (B2g) B    
  0.1203       1 (B3u) B   ->    4 (B2g) B     1 (B1g) B    
 -0.1203       1 (B2u) A   ->    4 (B3g) A     1 (B1g) B    
  0.1203       1 (B2u) A   ->    1 (B1g) B     4 (B3g) A    
 -0.1203       1 (B3u) A   ->    4 (B2g) A     1 (B1g) B    
  0.1203       1 (B3u) A   ->    1 (B1g) B     4 (B2g) A    
  0.1199       1 (B3u) A   ->    1 (B1g) A     4 (B2g) B    
 -0.1199       1 (B3u) A   ->    4 (B2g) B     1 (B1g) A    
  0.1199       1 (B2u) A   ->    1 (B1g) A     4 (B3g) B    
 -0.1199       1 (B2u) A   ->    4 (B3g) B     1 (B1g) A    

              Summary of significant orbitals:

               Number  Type             Irrep      Energy
               7       Occ  Alpha       1 (B2u)     -0.6145
               6       Occ  Alpha       1 (B3u)     -0.6145
               7       Occ  Beta        1 (B2u)     -0.6145
               6       Occ  Beta        1 (B3u)     -0.6145
               20      Vir  Alpha       1 (B1g)      0.0538
               25      Vir  Alpha       2 (B2g)      0.1189
               30      Vir  Alpha       3 (B2g)      0.1730
               37      Vir  Alpha       4 (B2g)      0.3156
               26      Vir  Alpha       2 (B3g)      0.1189
               31      Vir  Alpha       3 (B3g)      0.1730
               38      Vir  Alpha       4 (B3g)      0.3156
               20      Vir  Beta        1 (B1g)      0.0538
               25      Vir  Beta        2 (B2g)      0.1189
               30      Vir  Beta        3 (B2g)      0.1730
               37      Vir  Beta        4 (B2g)      0.3156
               26      Vir  Beta        2 (B3g)      0.1189
               31      Vir  Beta        3 (B3g)      0.1730
               38      Vir  Beta        4 (B3g)      0.3156


 EOMEA transition 2/Au
 Total energy = -108.95180475 a.u.  Excitation energy = 11.1608 eV.
 R1^2 = 0.0000  R2^2 = 1.0000  Res^2 = 4.57e-07
 Conv-d = yes

 Amplitude    Transitions between orbitals
  0.3966       1 (B3u) A   ->    1 (B1g) A     3 (B2g) B    
 -0.3966       1 (B3u) A   ->    3 (B2g) B     1 (B1g) A    
 -0.3966       1 (B2u) A   ->    1 (B1g) A     3 (B3g) B    
  0.3966       1 (B2u) A   ->    3 (B3g) B     1 (B1g) A    
  0.3560       1 (B3u) A   ->    1 (B1g) A     2 (B2g) B    
 -0.3560       1 (B3u) A   ->    2 (B2g) B     1 (B1g) A    
 -0.3560       1 (B2u) A   ->    1 (B1g) A     2 (B3g) B    
  0.3560       1 (B2u) A   ->    2 (B3g) B     1 (B1g) A    
  0.1988       1 (B3u) A   ->    3 (B2g) A     1 (B1g) B    
 -0.1988       1 (B3u) A   ->    1 (B1g) B     3 (B2g) A    
 -0.1988       1 (B2u) A   ->    3 (B3g) A     1 (B1g) B    
  0.1988       1 (B2u) A   ->    1 (B1g) B     3 (B3g) A    
  0.1985       1 (B3u) B   ->    1 (B1g) B     3 (B2g) B    
 -0.1985       1 (B3u) B   ->    3 (B2g) B     1 (B1g) B    
 -0.1985       1 (B2u) B   ->    1 (B1g) B     3 (B3g) B    
  0.1985       1 (B2u) B   ->    3 (B3g) B     1 (B1g) B    
  0.1783       1 (B3u) A   ->    2 (B2g) A     1 (B1g) B    
 -0.1783       1 (B3u) A   ->    1 (B1g) B     2 (B2g) A    
 -0.1783       1 (B2u) A   ->    2 (B3g) A     1 (B1g) B    
  0.1783       1 (B2u) A   ->    1 (B1g) B     2 (B3g) A    
  0.1783       1 (B3u) B   ->    1 (B1g) B     2 (B2g) B    
 -0.1783       1 (B3u) B   ->    2 (B2g) B     1 (B1g) B    
 -0.1783       1 (B2u) B   ->    1 (B1g) B     2 (B3g) B    
  0.1783       1 (B2u) B   ->    2 (B3g) B     1 (B1g) B    
 -0.1699       1 (B3u) A   ->    1 (B1g) A     4 (B2g) B    
  0.1699       1 (B3u) A   ->    4 (B2g) B     1 (B1g) A    
 -0.1699       1 (B2u) A   ->    1 (B1g) A     4 (B3g) B    
  0.1699       1 (B2u) A   ->    4 (B3g) B     1 (B1g) A    

              Summary of significant orbitals:

               Number  Type             Irrep      Energy
               7       Occ  Alpha       1 (B2u)     -0.6145
               6       Occ  Alpha       1 (B3u)     -0.6145
               7       Occ  Beta        1 (B2u)     -0.6145
               6       Occ  Beta        1 (B3u)     -0.6145
               20      Vir  Alpha       1 (B1g)      0.0538
               25      Vir  Alpha       2 (B2g)      0.1189
               30      Vir  Alpha       3 (B2g)      0.1730
               26      Vir  Alpha       2 (B3g)      0.1189
               31      Vir  Alpha       3 (B3g)      0.1730
               20      Vir  Beta        1 (B1g)      0.0538
               25      Vir  Beta        2 (B2g)      0.1189
               30      Vir  Beta        3 (B2g)      0.1730
               37      Vir  Beta        4 (B2g)      0.3156
               26      Vir  Beta        2 (B3g)      0.1189
               31      Vir  Beta        3 (B3g)      0.1730
               38      Vir  Beta        4 (B3g)      0.3156


 EOMEA transition 3/Au
 Total energy = -108.94740540 a.u.  Excitation energy = 11.2805 eV.
 R1^2 = 0.0000  R2^2 = 1.0000  Res^2 = 8.38e-06
 Conv-d = yes

 Amplitude    Transitions between orbitals
  0.2774       1 (B3u) A   ->    4 (Ag) A      3 (B3g) B    
 -0.2774       1 (B3u) A   ->    3 (B3g) B     4 (Ag) A     
 -0.2774       1 (B2u) A   ->    4 (Ag) A      3 (B2g) B    
  0.2774       1 (B2u) A   ->    3 (B2g) B     4 (Ag) A     
 -0.2773       1 (B3u) B   ->    4 (Ag) B      3 (B3g) B    
  0.2773       1 (B3u) B   ->    3 (B3g) B     4 (Ag) B     
  0.2773       1 (B2u) B   ->    4 (Ag) B      3 (B2g) B    
 -0.2773       1 (B2u) B   ->    3 (B2g) B     4 (Ag) B     
 -0.2770       1 (B3u) A   ->    3 (B3g) A     4 (Ag) B     
  0.2770       1 (B3u) A   ->    4 (Ag) B      3 (B3g) A    
  0.2770       1 (B2u) A   ->    3 (B2g) A     4 (Ag) B     
 -0.2770       1 (B2u) A   ->    4 (Ag) B      3 (B2g) A    
 -0.2586       1 (B3u) B   ->    4 (Ag) B      2 (B3g) B    
  0.2586       1 (B3u) B   ->    2 (B3g) B     4 (Ag) B     
  0.2586       1 (B2u) B   ->    4 (Ag) B      2 (B2g) B    
 -0.2586       1 (B2u) B   ->    2 (B2g) B     4 (Ag) B     
  0.2586       1 (B3u) A   ->    4 (Ag) A      2 (B3g) B    
 -0.2586       1 (B3u) A   ->    2 (B3g) B     4 (Ag) A     
 -0.2586       1 (B2u) A   ->    4 (Ag) A      2 (B2g) B    
  0.2586       1 (B2u) A   ->    2 (B2g) B     4 (Ag) A     
 -0.2584       1 (B3u) A   ->    2 (B3g) A     4 (Ag) B     
  0.2584       1 (B3u) A   ->    4 (Ag) B      2 (B3g) A    
  0.2584       1 (B2u) A   ->    2 (B2g) A     4 (Ag) B     
 -0.2584       1 (B2u) A   ->    4 (Ag) B      2 (B2g) A    
 -0.1112       1 (B3u) B   ->    4 (Ag) B      4 (B3g) B    
  0.1112       1 (B3u) B   ->    4 (B3g) B     4 (Ag) B     
 -0.1112       1 (B2u) B   ->    4 (Ag) B      4 (B2g) B    
  0.1112       1 (B2u) B   ->    4 (B2g) B     4 (Ag) B     
  0.1112       1 (B3u) A   ->    4 (Ag) A      4 (B3g) B    
 -0.1112       1 (B3u) A   ->    4 (B3g) B     4 (Ag) A     
  0.1112       1 (B2u) A   ->    4 (Ag) A      4 (B2g) B    
 -0.1112       1 (B2u) A   ->    4 (B2g) B     4 (Ag) A     
 -0.1111       1 (B3u) A   ->    4 (B3g) A     4 (Ag) B     
  0.1111       1 (B3u) A   ->    4 (Ag) B      4 (B3g) A    
 -0.1111       1 (B2u) A   ->    4 (B2g) A     4 (Ag) B     
  0.1111       1 (B2u) A   ->    4 (Ag) B      4 (B2g) A    

              Summary of significant orbitals:

               Number  Type             Irrep      Energy
               7       Occ  Alpha       1 (B2u)     -0.6145
               6       Occ  Alpha       1 (B3u)     -0.6145
               7       Occ  Beta        1 (B2u)     -0.6145
               6       Occ  Beta        1 (B3u)     -0.6145
               8       Vir  Alpha       4 (Ag)      0.0090
               25      Vir  Alpha       2 (B2g)      0.1189
               30      Vir  Alpha       3 (B2g)      0.1730
               37      Vir  Alpha       4 (B2g)      0.3156
               26      Vir  Alpha       2 (B3g)      0.1189
               31      Vir  Alpha       3 (B3g)      0.1730
               38      Vir  Alpha       4 (B3g)      0.3156
               8       Vir  Beta        4 (Ag)      0.0090
               25      Vir  Beta        2 (B2g)      0.1189
               30      Vir  Beta        3 (B2g)      0.1730
               37      Vir  Beta        4 (B2g)      0.3156
               26      Vir  Beta        2 (B3g)      0.1189
               31      Vir  Beta        3 (B3g)      0.1730
               38      Vir  Beta        4 (B3g)      0.3156


 EOMEA transition 4/Au
 Total energy = -108.94716798 a.u.  Excitation energy = 11.2869 eV.
 R1^2 = 0.0000  R2^2 = 1.0000  Res^2 = 7.30e-08
 Conv-d = yes

 Amplitude    Transitions between orbitals
  0.3932       1 (B3u) A   ->    4 (Ag) A      3 (B3g) B    
 -0.3932       1 (B3u) A   ->    3 (B3g) B     4 (Ag) A     
 -0.3932       1 (B2u) A   ->    4 (Ag) A      3 (B2g) B    
  0.3932       1 (B2u) A   ->    3 (B2g) B     4 (Ag) A     
  0.3659       1 (B3u) A   ->    4 (Ag) A      2 (B3g) B    
 -0.3659       1 (B3u) A   ->    2 (B3g) B     4 (Ag) A     
 -0.3659       1 (B2u) A   ->    4 (Ag) A      2 (B2g) B    
  0.3659       1 (B2u) A   ->    2 (B2g) B     4 (Ag) A     
  0.1969       1 (B3u) A   ->    3 (B3g) A     4 (Ag) B     
 -0.1969       1 (B3u) A   ->    4 (Ag) B      3 (B3g) A    
 -0.1969       1 (B2u) A   ->    3 (B2g) A     4 (Ag) B     
  0.1969       1 (B2u) A   ->    4 (Ag) B      3 (B2g) A    
  0.1966       1 (B3u) B   ->    4 (Ag) B      3 (B3g) B    
 -0.1966       1 (B3u) B   ->    3 (B3g) B     4 (Ag) B     
 -0.1966       1 (B2u) B   ->    4 (Ag) B      3 (B2g) B    
  0.1966       1 (B2u) B   ->    3 (B2g) B     4 (Ag) B     
 -0.1832       1 (B2u) B   ->    4 (Ag) B      2 (B2g) B    
  0.1832       1 (B2u) B   ->    2 (B2g) B     4 (Ag) B     
  0.1832       1 (B3u) B   ->    4 (Ag) B      2 (B3g) B    
 -0.1832       1 (B3u) B   ->    2 (B3g) B     4 (Ag) B     
 -0.1831       1 (B2u) A   ->    2 (B2g) A     4 (Ag) B     
  0.1831       1 (B2u) A   ->    4 (Ag) B      2 (B2g) A    
  0.1831       1 (B3u) A   ->    2 (B3g) A     4 (Ag) B     
 -0.1831       1 (B3u) A   ->    4 (Ag) B      2 (B3g) A    
  0.1578       1 (B3u) A   ->    4 (Ag) A      4 (B3g) B    
 -0.1578       1 (B3u) A   ->    4 (B3g) B     4 (Ag) A     
  0.1578       1 (B2u) A   ->    4 (Ag) A      4 (B2g) B    
 -0.1578       1 (B2u) A   ->    4 (B2g) B     4 (Ag) A     

              Summary of significant orbitals:

               Number  Type             Irrep      Energy
               7       Occ  Alpha       1 (B2u)     -0.6145
               6       Occ  Alpha       1 (B3u)     -0.6145
               7       Occ  Beta        1 (B2u)     -0.6145
               6       Occ  Beta        1 (B3u)     -0.6145
               8       Vir  Alpha       4 (Ag)      0.0090
               25      Vir  Alpha       2 (B2g)      0.1189
               30      Vir  Alpha       3 (B2g)      0.1730
               26      Vir  Alpha       2 (B3g)      0.1189
               31      Vir  Alpha       3 (B3g)      0.1730
               8       Vir  Beta        4 (Ag)      0.0090
               25      Vir  Beta        2 (B2g)      0.1189
               30      Vir  Beta        3 (B2g)      0.1730
               37      Vir  Beta        4 (B2g)      0.3156
               26      Vir  Beta        2 (B3g)      0.1189
               31      Vir  Beta        3 (B3g)      0.1730
               38      Vir  Beta        4 (B3g)      0.3156


 EOMEA transition 5/Au
 Total energy = -108.93756249 a.u.  Excitation energy = 11.5483 eV.
 R1^2 = 0.0000  R2^2 = 1.0000  Res^2 = 8.24e-06
 Conv-d = yes

 Amplitude    Transitions between orbitals
  0.3639       3 (Ag) A    ->    2 (B3u) A     3 (B3g) B    
 -0.3639       3 (Ag) A    ->    3 (B3g) B     2 (B3u) A    
  0.3639       3 (Ag) A    ->    2 (B2u) A     3 (B2g) B    
 -0.3639       3 (Ag) A    ->    3 (B2g) B     2 (B2u) A    
  0.3453       3 (Ag) A    ->    2 (B3u) A     2 (B3g) B    
 -0.3453       3 (Ag) A    ->    2 (B3g) B     2 (B3u) A    
  0.3453       3 (Ag) A    ->    2 (B2u) A     2 (B2g) B    
 -0.3453       3 (Ag) A    ->    2 (B2g) B     2 (B2u) A    
  0.2227       3 (Ag) A    ->    3 (B3g) A     2 (B3u) B    
 -0.2227       3 (Ag) A    ->    2 (B3u) B     3 (B3g) A    
  0.2227       3 (Ag) A    ->    3 (B2g) A     2 (B2u) B    
 -0.2227       3 (Ag) A    ->    2 (B2u) B     3 (B2g) A    
 -0.2224       3 (Ag) B    ->    3 (B3g) B     2 (B3u) B    
  0.2224       3 (Ag) B    ->    2 (B3u) B     3 (B3g) B    
 -0.2224       3 (Ag) B    ->    3 (B2g) B     2 (B2u) B    
  0.2224       3 (Ag) B    ->    2 (B2u) B     3 (B2g) B    
  0.2114       3 (Ag) A    ->    2 (B3g) A     2 (B3u) B    
 -0.2114       3 (Ag) A    ->    2 (B3u) B     2 (B3g) A    
  0.2114       3 (Ag) A    ->    2 (B2g) A     2 (B2u) B    
 -0.2114       3 (Ag) A    ->    2 (B2u) B     2 (B2g) A    
 -0.2109       3 (Ag) B    ->    2 (B3g) B     2 (B3u) B    
  0.2109       3 (Ag) B    ->    2 (B3u) B     2 (B3g) B    
 -0.2109       3 (Ag) B    ->    2 (B2g) B     2 (B2u) B    
  0.2109       3 (Ag) B    ->    2 (B2u) B     2 (B2g) B    
  0.1388       3 (Ag) A    ->    2 (B3u) A     4 (B3g) B    
 -0.1388       3 (Ag) A    ->    4 (B3g) B     2 (B3u) A    
 -0.1388       3 (Ag) A    ->    2 (B2u) A     4 (B2g) B    
  0.1388       3 (Ag) A    ->    4 (B2g) B     2 (B2u) A    

              Summary of significant orbitals:

               Number  Type             Irrep      Energy
               5       Occ  Alpha       3 (Ag)     -0.6345
               5       Occ  Beta        3 (Ag)     -0.6345
               25      Vir  Alpha       2 (B2g)      0.1189
               30      Vir  Alpha       3 (B2g)      0.1730
               26      Vir  Alpha       2 (B3g)      0.1189
               31      Vir  Alpha       3 (B3g)      0.1730
               10      Vir  Alpha       2 (B2u)      0.0118
               9       Vir  Alpha       2 (B3u)      0.0118
               25      Vir  Beta        2 (B2g)      0.1189
               30      Vir  Beta        3 (B2g)      0.1730
               37      Vir  Beta        4 (B2g)      0.3156
               26      Vir  Beta        2 (B3g)      0.1189
               31      Vir  Beta        3 (B3g)      0.1730
               38      Vir  Beta        4 (B3g)      0.3156
               10      Vir  Beta        2 (B2u)      0.0118
               9       Vir  Beta        2 (B3u)      0.0118


 EOMEA transition 6/Au
 Total energy = -108.93755933 a.u.  Excitation energy = 11.5484 eV.
 R1^2 = 0.0000  R2^2 = 1.0000  Res^2 = 7.46e-07
 Conv-d = yes

 Amplitude    Transitions between orbitals
 -0.3217       3 (Ag) A    ->    2 (B3u) A     3 (B3g) B    
  0.3217       3 (Ag) A    ->    3 (B3g) B     2 (B3u) A    
 -0.3217       3 (Ag) A    ->    2 (B2u) A     3 (B2g) B    
  0.3217       3 (Ag) A    ->    3 (B2g) B     2 (B2u) A    
 -0.3051       3 (Ag) A    ->    2 (B3u) A     2 (B3g) B    
  0.3051       3 (Ag) A    ->    2 (B3g) B     2 (B3u) A    
 -0.3051       3 (Ag) A    ->    2 (B2u) A     2 (B2g) B    
  0.3051       3 (Ag) A    ->    2 (B2g) B     2 (B2u) A    
  0.2535       3 (Ag) A    ->    3 (B3g) A     2 (B3u) B    
 -0.2535       3 (Ag) A    ->    2 (B3u) B     3 (B3g) A    
  0.2535       3 (Ag) A    ->    3 (B2g) A     2 (B2u) B    
 -0.2535       3 (Ag) A    ->    2 (B2u) B     3 (B2g) A    
 -0.2535       3 (Ag) B    ->    3 (B3g) B     2 (B3u) B    
  0.2535       3 (Ag) B    ->    2 (B3u) B     3 (B3g) B    
 -0.2535       3 (Ag) B    ->    3 (B2g) B     2 (B2u) B    
  0.2535       3 (Ag) B    ->    2 (B2u) B     3 (B2g) B    
 -0.2405       3 (Ag) B    ->    2 (B3g) B     2 (B3u) B    
  0.2405       3 (Ag) B    ->    2 (B3u) B     2 (B3g) B    
 -0.2405       3 (Ag) B    ->    2 (B2g) B     2 (B2u) B    
  0.2405       3 (Ag) B    ->    2 (B2u) B     2 (B2g) B    
  0.2404       3 (Ag) A    ->    2 (B3g) A     2 (B3u) B    
 -0.2404       3 (Ag) A    ->    2 (B3u) B     2 (B3g) A    
  0.2404       3 (Ag) A    ->    2 (B2g) A     2 (B2u) B    
 -0.2404       3 (Ag) A    ->    2 (B2u) B     2 (B2g) A    
 -0.1227       3 (Ag) A    ->    2 (B3u) A     4 (B3g) B    
  0.1227       3 (Ag) A    ->    4 (B3g) B     2 (B3u) A    
  0.1227       3 (Ag) A    ->    2 (B2u) A     4 (B2g) B    
 -0.1227       3 (Ag) A    ->    4 (B2g) B     2 (B2u) A    

              Summary of significant orbitals:

               Number  Type             Irrep      Energy
               5       Occ  Alpha       3 (Ag)     -0.6345
               5       Occ  Beta        3 (Ag)     -0.6345
               25      Vir  Alpha       2 (B2g)      0.1189
               30      Vir  Alpha       3 (B2g)      0.1730
               26      Vir  Alpha       2 (B3g)      0.1189
               31      Vir  Alpha       3 (B3g)      0.1730
               10      Vir  Alpha       2 (B2u)      0.0118
               9       Vir  Alpha       2 (B3u)      0.0118
               25      Vir  Beta        2 (B2g)      0.1189
               30      Vir  Beta        3 (B2g)      0.1730
               37      Vir  Beta        4 (B2g)      0.3156
               26      Vir  Beta        2 (B3g)      0.1189
               31      Vir  Beta        3 (B3g)      0.1730
               38      Vir  Beta        4 (B3g)      0.3156
               10      Vir  Beta        2 (B2u)      0.0118
               9       Vir  Beta        2 (B3u)      0.0118


 EOMEA transition 7/Au
 Total energy = -108.93711983 a.u.  Excitation energy = 11.5604 eV.
 R1^2 = 0.0000  R2^2 = 1.0000  Res^2 = 2.67e-06
 Conv-d = yes

 Amplitude    Transitions between orbitals
 -0.2766       3 (Ag) B    ->    3 (B2g) B     2 (B2u) B    
  0.2766       3 (Ag) B    ->    2 (B2u) B     3 (B2g) B    
  0.2766       3 (Ag) B    ->    3 (B3g) B     2 (B3u) B    
 -0.2766       3 (Ag) B    ->    2 (B3u) B     3 (B3g) B    
  0.2765       3 (Ag) A    ->    3 (B2g) A     2 (B2u) B    
 -0.2765       3 (Ag) A    ->    2 (B2u) B     3 (B2g) A    
 -0.2765       3 (Ag) A    ->    3 (B3g) A     2 (B3u) B    
  0.2765       3 (Ag) A    ->    2 (B3u) B     3 (B3g) A    
 -0.2749       3 (Ag) A    ->    2 (B2u) A     3 (B2g) B    
  0.2749       3 (Ag) A    ->    3 (B2g) B     2 (B2u) A    
  0.2749       3 (Ag) A    ->    2 (B3u) A     3 (B3g) B    
 -0.2749       3 (Ag) A    ->    3 (B3g) B     2 (B3u) A    
 -0.2624       3 (Ag) B    ->    2 (B2g) B     2 (B2u) B    
  0.2624       3 (Ag) B    ->    2 (B2u) B     2 (B2g) B    
  0.2624       3 (Ag) B    ->    2 (B3g) B     2 (B3u) B    
 -0.2624       3 (Ag) B    ->    2 (B3u) B     2 (B3g) B    
  0.2623       3 (Ag) A    ->    2 (B2g) A     2 (B2u) B    
 -0.2623       3 (Ag) A    ->    2 (B2u) B     2 (B2g) A    
 -0.2623       3 (Ag) A    ->    2 (B3g) A     2 (B3u) B    
  0.2623       3 (Ag) A    ->    2 (B3u) B     2 (B3g) A    
 -0.2608       3 (Ag) A    ->    2 (B2u) A     2 (B2g) B    
  0.2608       3 (Ag) A    ->    2 (B2g) B     2 (B2u) A    
  0.2608       3 (Ag) A    ->    2 (B3u) A     2 (B3g) B    
 -0.2608       3 (Ag) A    ->    2 (B3g) B     2 (B3u) A    
  0.1055       3 (Ag) B    ->    4 (B2g) B     2 (B2u) B    
 -0.1055       3 (Ag) B    ->    2 (B2u) B     4 (B2g) B    
  0.1055       3 (Ag) B    ->    4 (B3g) B     2 (B3u) B    
 -0.1055       3 (Ag) B    ->    2 (B3u) B     4 (B3g) B    
 -0.1055       3 (Ag) A    ->    4 (B2g) A     2 (B2u) B    
  0.1055       3 (Ag) A    ->    2 (B2u) B     4 (B2g) A    
 -0.1055       3 (Ag) A    ->    4 (B3g) A     2 (B3u) B    
  0.1055       3 (Ag) A    ->    2 (B3u) B     4 (B3g) A    
  0.1049       3 (Ag) A    ->    2 (B2u) A     4 (B2g) B    
 -0.1049       3 (Ag) A    ->    4 (B2g) B     2 (B2u) A    
  0.1049       3 (Ag) A    ->    2 (B3u) A     4 (B3g) B    
[...]

 ------------------------------------------------------------------------------
 State A: eomea_ccsd/b: 6/Au
 State B: eomea_ccsd/b: 8/Au
 Transition dipole moment (a.u.):
   A->B: 0.000000 (X 0.000000, Y 0.000000, Z 0.000000)
   B->A: 0.000000 (X 0.000000, Y 0.000000, Z 0.000000)
 Oscillator strength (a.u.): 0.000000
 Transition angular momentum against gauge origin (a.u.):
   A->B:  (X 0.000000i, Y 0.000000i, Z 0.000000i)
   B->A:  (X 0.000000i, Y 0.000000i, Z 0.000000i)
 Norm of one-particle transition density matrix:
   A->B: 0.509811;   B->A: 0.498771
   ||gamma^AB||*||gamma^BA||: 0.254279

 ------------------------------------------------------------------------------
 State A: eomea_ccsd/b: 6/Au
 State B: eomea_ccsd/b: 9/Au
 Transition dipole moment (a.u.):
   A->B: 0.000000 (X 0.000000, Y 0.000000, Z 0.000000)
   B->A: 0.000000 (X 0.000000, Y 0.000000, Z 0.000000)
 Oscillator strength (a.u.): 0.000000
 Transition angular momentum against gauge origin (a.u.):
   A->B:  (X 0.000000i, Y 0.000000i, Z 0.000000i)
   B->A:  (X 0.000000i, Y 0.000000i, Z 0.000000i)
 Norm of one-particle transition density matrix:
   A->B: 0.121115;   B->A: 0.116515
   ||gamma^AB||*||gamma^BA||: 0.014112

 ------------------------------------------------------------------------------
 State A: eomea_ccsd/b: 6/Au
 State B: eomea_ccsd/b: 10/Au
 Transition dipole moment (a.u.):
   A->B: 0.000000 (X 0.000000, Y 0.000000, Z 0.000000)
   B->A: 0.000000 (X 0.000000, Y 0.000000, Z 0.000000)
 Oscillator strength (a.u.): 0.000000
 Transition angular momentum against gauge origin (a.u.):
   A->B:  (X 0.000000i, Y 0.000000i, Z 0.000000i)
   B->A:  (X 0.000000i, Y 0.000000i, Z 0.000000i)
 Norm of one-particle transition density matrix:
   A->B: 0.383220;   B->A: 0.375312
   ||gamma^AB||*||gamma^BA||: 0.143827

 ------------------------------------------------------------------------------
 State A: eomea_ccsd/b: 7/Au
 State B: eomea_ccsd/b: 8/Au
 Transition dipole moment (a.u.):
   A->B: 0.000000 (X 0.000000, Y 0.000000, Z 0.000000)
   B->A: 0.000000 (X 0.000000, Y 0.000000, Z 0.000000)
 Oscillator strength (a.u.): 0.000000
 Transition angular momentum against gauge origin (a.u.):
   A->B:  (X 0.000000i, Y 0.000000i, Z 0.000000i)
   B->A:  (X 0.000000i, Y 0.000000i, Z 0.000000i)
 Norm of one-particle transition density matrix:
   A->B: 0.611068;   B->A: 0.610312
   ||gamma^AB||*||gamma^BA||: 0.372942

 ------------------------------------------------------------------------------
 State A: eomea_ccsd/b: 7/Au
 State B: eomea_ccsd/b: 9/Au
 Transition dipole moment (a.u.):
   A->B: 0.000000 (X 0.000000, Y 0.000000, Z 0.000000)
   B->A: 0.000000 (X 0.000000, Y 0.000000, Z 0.000000)
 Oscillator strength (a.u.): 0.000000
 Transition angular momentum against gauge origin (a.u.):
   A->B:  (X 0.000000i, Y 0.000000i, Z 0.000000i)
   B->A:  (X 0.000000i, Y 0.000000i, Z 0.000000i)
 Norm of one-particle transition density matrix:
   A->B: 0.155859;   B->A: 0.152533
   ||gamma^AB||*||gamma^BA||: 0.023774

 ------------------------------------------------------------------------------
 State A: eomea_ccsd/b: 7/Au
 State B: eomea_ccsd/b: 10/Au
 Transition dipole moment (a.u.):
   A->B: 0.000000 (X 0.000000, Y 0.000000, Z 0.000000)
   B->A: 0.000000 (X 0.000000, Y 0.000000, Z 0.000000)
 Oscillator strength (a.u.): 0.000000
 Transition angular momentum against gauge origin (a.u.):
   A->B:  (X 0.000000i, Y 0.000000i, Z 0.000000i)
   B->A:  (X 0.000000i, Y 0.000000i, Z 0.000000i)
 Norm of one-particle transition density matrix:
   A->B: 0.435047;   B->A: 0.434059
   ||gamma^AB||*||gamma^BA||: 0.188836

 ------------------------------------------------------------------------------
 State A: eomea_ccsd/b: 8/Au
 State B: eomea_ccsd/b: 9/Au
 Transition dipole moment (a.u.):
   A->B: 0.000000 (X 0.000000, Y 0.000000, Z 0.000000)
   B->A: 0.000000 (X 0.000000, Y 0.000000, Z 0.000000)
 Oscillator strength (a.u.): 0.000000
 Transition angular momentum against gauge origin (a.u.):
   A->B:  (X 0.000000i, Y 0.000000i, Z 0.000000i)
   B->A:  (X 0.000000i, Y 0.000000i, Z 0.000000i)
 Norm of one-particle transition density matrix:
   A->B: 0.173494;   B->A: 0.169694
   ||gamma^AB||*||gamma^BA||: 0.029441

 ------------------------------------------------------------------------------
 State A: eomea_ccsd/b: 8/Au
 State B: eomea_ccsd/b: 10/Au
 Transition dipole moment (a.u.):
   A->B: 0.000000 (X 0.000000, Y 0.000000, Z 0.000000)
   B->A: 0.000000 (X 0.000000, Y 0.000000, Z 0.000000)
 Oscillator strength (a.u.): 0.000000
 Transition angular momentum against gauge origin (a.u.):
   A->B:  (X 0.000000i, Y 0.000000i, Z 0.000000i)
   B->A:  (X 0.000000i, Y 0.000000i, Z 0.000000i)
 Norm of one-particle transition density matrix:
   A->B: 0.487172;   B->A: 0.486118
   ||gamma^AB||*||gamma^BA||: 0.236823

 ------------------------------------------------------------------------------
 State A: eomea_ccsd/b: 9/Au
 State B: eomea_ccsd/b: 10/Au
 Transition dipole moment (a.u.):
   A->B: 0.000000 (X 0.000000, Y 0.000000, Z 0.000000)
   B->A: 0.000000 (X 0.000000, Y 0.000000, Z 0.000000)
 Oscillator strength (a.u.): 0.000000
 Transition angular momentum against gauge origin (a.u.):
   A->B:  (X 0.000000i, Y 0.000000i, Z 0.000000i)
   B->A:  (X 0.000000i, Y 0.000000i, Z 0.000000i)
 Norm of one-particle transition density matrix:
   A->B: 0.399607;   B->A: 0.405902
   ||gamma^AB||*||gamma^BA||: 0.162201


 All requested transition properties have been computed

 Transition Properties:   CPU 652.44 s  wall 84.63 s

Starting Projected CAP calculation.
Performing Projected CAP-EOM calculation for B2g states.
Generating CAP matrix for 10 roots.
Zeroth order Hamiltonian:
-1.0931353936e+02 0.0000000000e+00 0.0000000000e+00 0.0000000000e+00 0.0000000000e+00 0.0000000000e+00 0.0000000000e+00 0.0000000000e+00 0.0000000000e+00 0.0000000000e+00
0.0000000000e+00 -1.0926810782e+02 0.0000000000e+00 0.0000000000e+00 0.0000000000e+00 0.0000000000e+00 0.0000000000e+00 0.0000000000e+00 0.0000000000e+00 0.0000000000e+00
0.0000000000e+00 0.0000000000e+00 -1.0921019448e+02 0.0000000000e+00 0.0000000000e+00 0.0000000000e+00 0.0000000000e+00 0.0000000000e+00 0.0000000000e+00 0.0000000000e+00
0.0000000000e+00 0.0000000000e+00 0.0000000000e+00 -1.0906263904e+02 0.0000000000e+00 0.0000000000e+00 0.0000000000e+00 0.0000000000e+00 0.0000000000e+00 0.0000000000e+00
0.0000000000e+00 0.0000000000e+00 0.0000000000e+00 0.0000000000e+00 -1.0899340824e+02 0.0000000000e+00 0.0000000000e+00 0.0000000000e+00 0.0000000000e+00 0.0000000000e+00
0.0000000000e+00 0.0000000000e+00 0.0000000000e+00 0.0000000000e+00 0.0000000000e+00 -1.0899332577e+02 0.0000000000e+00 0.0000000000e+00 0.0000000000e+00 0.0000000000e+00
0.0000000000e+00 0.0000000000e+00 0.0000000000e+00 0.0000000000e+00 0.0000000000e+00 0.0000000000e+00 -1.0896489909e+02 0.0000000000e+00 0.0000000000e+00 0.0000000000e+00
0.0000000000e+00 0.0000000000e+00 0.0000000000e+00 0.0000000000e+00 0.0000000000e+00 0.0000000000e+00 0.0000000000e+00 -1.0896408670e+02 0.0000000000e+00 0.0000000000e+00
0.0000000000e+00 0.0000000000e+00 0.0000000000e+00 0.0000000000e+00 0.0000000000e+00 0.0000000000e+00 0.0000000000e+00 0.0000000000e+00 -1.0894450265e+02 0.0000000000e+00
0.0000000000e+00 0.0000000000e+00 0.0000000000e+00 0.0000000000e+00 0.0000000000e+00 0.0000000000e+00 0.0000000000e+00 0.0000000000e+00 0.0000000000e+00 -1.0894441941e+02
CAP matrix:
-4.2870464437e+01 -1.6108710719e+01 1.8549138066e+01 -6.0235020494e+00 -3.3426348193e-04 6.3278475404e-02 -3.6052602649e-04 -1.1973579775e-01 3.1436575346e-02 -6.7385433002e-02
-1.6324502433e+01 -8.7210229564e+00 1.3165344783e+01 -6.2173690819e+00 -7.8919331138e-04 -2.8748999380e-02 -1.5269711094e-03 8.7704715090e-02 -4.7859830234e-02 1.0250297233e-01
1.8627301311e+01 1.3050363844e+01 -2.4986009346e+01 1.5816123188e+01 6.9576838470e-04 -2.0306449632e-01 9.2649187522e-04 5.4850841669e-01 -1.2725656334e-01 2.5601507277e-01
-6.0228583213e+00 -6.1394108353e+00 1.5746755459e+01 -1.6404632998e+01 -2.4837475766e-03 -1.4138606076e-01 -5.8464212734e-03 9.5735835517e-03 6.7723108755e-03 5.8126036907e-03
-3.3062130989e-05 -7.6221152431e-04 -3.7387396300e-04 -2.0725406062e-03 -1.6043087020e+02 1.2777112514e-02 -8.0105600138e+01 1.4900321366e-01 -7.4098241290e-01 -2.2417822885e-01
6.1676357339e-02 -3.9680941793e-02 -2.0216639160e-01 -1.4133946883e-01 1.8742233167e-02 -1.6164763629e+02 -4.6576802523e-01 -7.9929258386e+01 1.5882190133e-02 -1.9607448972e-01
-2.7202856312e-05 -1.6518852250e-03 5.0561370915e-04 -6.3152138131e-03 -8.0118252709e+01 -9.8095853866e-02 -1.0134166772e+02 4.6117462789e-02 -4.6998672498e-01 -1.0023787273e-01
-1.0873094177e-01 5.0731492077e-02 4.9411243122e-01 -2.0285810535e-02 5.1807507701e-01 -7.9930185795e+01 4.9116431350e-02 -1.0253632156e+02 -5.6294382134e-02 -2.5652563467e-01
2.8325275170e-02 -3.4277411429e-02 -9.4562665159e-02 2.8324045474e-02 -7.8096187258e-01 2.2739802850e-02 -5.6215774781e-01 -9.2705704244e-03 -1.5785706482e+02 -3.7580809217e-01
-5.9675665765e-02 7.5070049828e-02 2.0778791092e-01 -5.0407509488e-02 -2.3313744949e-01 -1.7286993512e-01 -8.4675658236e-02 -3.0015139861e-01 -3.5899378208e-01 -1.5736138915e+02
Trajectory will be saved to B2g_traj.out
Done with B2g states.
 Trajectory ran in:   CPU 1.17 s  wall 0.14 s
Performing Projected CAP-EOM calculation for Au states.
Generating CAP matrix for 10 roots.
Zeroth order Hamiltonian:
-1.0895188466e+02 0.0000000000e+00 0.0000000000e+00 0.0000000000e+00 0.0000000000e+00 0.0000000000e+00 0.0000000000e+00 0.0000000000e+00 0.0000000000e+00 0.0000000000e+00
0.0000000000e+00 -1.0895180475e+02 0.0000000000e+00 0.0000000000e+00 0.0000000000e+00 0.0000000000e+00 0.0000000000e+00 0.0000000000e+00 0.0000000000e+00 0.0000000000e+00
0.0000000000e+00 0.0000000000e+00 -1.0894740540e+02 0.0000000000e+00 0.0000000000e+00 0.0000000000e+00 0.0000000000e+00 0.0000000000e+00 0.0000000000e+00 0.0000000000e+00
0.0000000000e+00 0.0000000000e+00 0.0000000000e+00 -1.0894716798e+02 0.0000000000e+00 0.0000000000e+00 0.0000000000e+00 0.0000000000e+00 0.0000000000e+00 0.0000000000e+00
0.0000000000e+00 0.0000000000e+00 0.0000000000e+00 0.0000000000e+00 -1.0893756249e+02 0.0000000000e+00 0.0000000000e+00 0.0000000000e+00 0.0000000000e+00 0.0000000000e+00
0.0000000000e+00 0.0000000000e+00 0.0000000000e+00 0.0000000000e+00 0.0000000000e+00 -1.0893755933e+02 0.0000000000e+00 0.0000000000e+00 0.0000000000e+00 0.0000000000e+00
0.0000000000e+00 0.0000000000e+00 0.0000000000e+00 0.0000000000e+00 0.0000000000e+00 0.0000000000e+00 -1.0893711983e+02 0.0000000000e+00 0.0000000000e+00 0.0000000000e+00
0.0000000000e+00 0.0000000000e+00 0.0000000000e+00 0.0000000000e+00 0.0000000000e+00 0.0000000000e+00 0.0000000000e+00 -1.0893706796e+02 0.0000000000e+00 0.0000000000e+00
0.0000000000e+00 0.0000000000e+00 0.0000000000e+00 0.0000000000e+00 0.0000000000e+00 0.0000000000e+00 0.0000000000e+00 0.0000000000e+00 -1.0891497978e+02 0.0000000000e+00
0.0000000000e+00 0.0000000000e+00 0.0000000000e+00 0.0000000000e+00 0.0000000000e+00 0.0000000000e+00 0.0000000000e+00 0.0000000000e+00 0.0000000000e+00 -1.0890753213e+02
CAP matrix:
-4.7627055760e+01 9.2441687560e-04 -1.9192989321e+00 3.8271047388e-04 1.2676123206e-05 1.0221627916e-05 -4.0885780291e+00 6.8483262811e-03 6.7760239572e-03 1.0278563175e-02
-5.5940809965e-05 -4.7631285064e+01 2.2515743212e-03 1.2472087047e+00 -5.3474948280e-06 -5.6678561147e-06 1.3688568439e-03 -3.9069457295e+00 -2.3331909286e+00 -2.9135454228e+00
-1.9363588926e+00 -1.9633411162e-03 -9.1426099990e+01 -1.0060655153e-03 1.1884410007e-05 6.4303643842e-05 -2.2397102575e+00 -4.5793421570e-03 -9.2529579690e-02 1.0401265375e-02
2.3400053742e-03 1.2477161579e+00 -1.1384801974e-03 -9.4264550746e+01 -1.8995265041e-06 -2.9215928442e-06 1.1598096639e-02 3.7394225680e+00 6.1271797991e+01 -1.1571773609e+01
1.3945438635e-05 -5.5241560982e-06 1.3943816703e-05 -2.1482124708e-06 -1.5846436082e+02 -4.8609767437e-01 -3.0187676941e-05 2.6180335853e-06 -4.4146414242e-06 -1.5913590529e-04
1.1841018951e-05 -6.2253962178e-06 7.4133926898e-05 -3.3919696409e-06 -5.0209123975e-01 -1.5886351136e+02 -5.4759997983e-05 3.5734331378e-06 -5.8086066042e-06 -1.9816028427e-04
-4.3376727169e+00 -3.3978687555e-03 -2.3742559180e+00 5.4556602457e-03 -2.7219557681e-05 -4.8566520134e-05 -1.5995484541e+02 -5.2368772640e-03 -2.4728048955e-02 -9.3775451666e-02
6.2257141563e-03 -4.0339202321e+00 2.1826856382e-03 3.8621548058e+00 2.5124402686e-06 3.2069183475e-06 -9.1967333166e-03 -1.6163036252e+02 -1.7354170860e+01 -7.6101815575e+01
-4.9970544225e-05 -2.3535290219e+00 -9.8265477061e-02 6.1393354963e+01 -3.4188322432e-06 -4.2537853315e-06 -5.7730177628e-02 -1.7029234425e+01 -8.2969941189e+01 -5.8148851764e+00
3.1051853955e-03 -2.9988692212e+00 1.4192093870e-02 -1.1726924456e+01 -1.6350108944e-04 -1.9554020865e-04 -2.2917634258e-01 -7.5951510138e+01 -5.9891359910e+00 -9.7778648457e+01
Trajectory will be saved to Au_traj.out
Done with Au states.
 Trajectory ran in:   CPU 1.14 s  wall 0.14 s
 Total ccman2 time:   CPU 2042.34 s  wall 301.61 s


 --------------------------------------------------------------
             Orbital Energies (a.u.) and Symmetries
 --------------------------------------------------------------

 Alpha MOs, Restricted
 -- Occupied --                  
-15.685 -15.682  -1.472  -0.780  -0.635  -0.614  -0.614
  1 Ag    1 B1u   2 Ag    2 B1u   3 Ag    1 B3u   1 B2u                        
 -- Virtual --                   
  0.009   0.012   0.012   0.012   0.041   0.041   0.041   0.042
  4 Ag    2 B3u   2 B2u   3 B1u   3 B3u   3 B2u   4 B1u   5 Ag                 
  0.049   0.049   0.051   0.054   0.054   0.104   0.106   0.106
  1 B2g   1 B3g   6 Ag    7 Ag    1 B1g   5 B1u   4 B3u   4 B2u                
  0.118   0.119   0.119   0.140   0.157   0.157   0.173   0.173
  8 Ag    2 B2g   2 B3g   9 Ag   10 Ag    2 B1g   3 B2g   3 B3g                
  0.203   0.262   0.262   0.279   0.305   0.316   0.316   0.331
  6 B1u   5 B3u   5 B2u  11 Ag   12 Ag    4 B2g   4 B3g   7 B1u                
  0.354   0.354   0.531   0.542   0.542   0.580   0.582   0.582
 13 Ag    3 B1g  14 Ag    5 B2g   5 B3g   8 B1u   1 Au    9 B1u                
  0.583   0.583   0.650   0.715   0.715   0.719   0.719   0.789
  6 B3u   6 B2u  15 Ag   16 Ag    4 B1g   6 B2g   6 B3g  10 B1u                
  0.847   0.847   1.095   1.157   1.227   1.227   1.308   1.372
  7 B3u   7 B2u  11 B1u  17 Ag    7 B2g   7 B3g  18 Ag    8 B2u                
  1.372   1.477   1.477   1.548   1.548   1.571   1.571   1.667
  8 B3u   9 B3u   9 B2u  19 Ag    5 B1g   2 Au   12 B1u  13 B1u                
  1.720   1.720   1.777   1.777   1.821   1.821   1.826   2.002
  8 B2g   8 B3g  20 Ag    6 B1g   9 B2g   9 B3g  21 Ag   14 B1u                
  2.161   2.161   2.317   2.317   2.600   2.600   2.771   3.107
 10 B3u  10 B2u   3 Au   15 B1u  10 B2g  10 B3g  16 B1u  22 Ag                 
  3.389   3.389   4.048   4.364   4.364   4.447   4.447   4.529
 11 B3u  11 B2u  23 Ag   11 B2g  11 B3g  24 Ag    7 B1g  12 B3u                
  4.529   4.562   4.661   4.661   4.737   5.043   5.043   5.157
 12 B2u  17 B1u  13 B2u  13 B3u  25 Ag   12 B2g  12 B3g   4 Au                 
  5.157   5.202   5.226   5.226   5.532   5.532   5.595   5.595
 18 B1u  19 B1u  26 Ag    8 B1g  13 B2g  13 B3g  14 B3u  14 B2u                
  5.747   5.747   6.773   6.807   6.900   6.900  11.488  19.321
  5 Au   20 B1u  21 B1u  27 Ag   14 B2g  14 B3g  28 Ag   22 B1u                

 Beta MOs, Restricted
 -- Occupied --                  
-15.685 -15.682  -1.472  -0.780  -0.635  -0.614  -0.614
  1 Ag    1 B1u   2 Ag    2 B1u   3 Ag    1 B3u   1 B2u                        
 -- Virtual --                   
  0.009   0.012   0.012   0.012   0.041   0.041   0.041   0.042
  4 Ag    2 B3u   2 B2u   3 B1u   3 B3u   3 B2u   4 B1u   5 Ag                 
  0.049   0.049   0.051   0.054   0.054   0.104   0.106   0.106
  1 B2g   1 B3g   6 Ag    7 Ag    1 B1g   5 B1u   4 B3u   4 B2u                
  0.118   0.119   0.119   0.140   0.157   0.157   0.173   0.173
  8 Ag    2 B2g   2 B3g   9 Ag   10 Ag    2 B1g   3 B2g   3 B3g                
  0.203   0.262   0.262   0.279   0.305   0.316   0.316   0.331
  6 B1u   5 B3u   5 B2u  11 Ag   12 Ag    4 B2g   4 B3g   7 B1u                
  0.354   0.354   0.531   0.542   0.542   0.580   0.582   0.582
 13 Ag    3 B1g  14 Ag    5 B2g   5 B3g   8 B1u   1 Au    9 B1u                
  0.583   0.583   0.650   0.715   0.715   0.719   0.719   0.789
  6 B3u   6 B2u  15 Ag   16 Ag    4 B1g   6 B2g   6 B3g  10 B1u                
  0.847   0.847   1.095   1.157   1.227   1.227   1.308   1.372
  7 B3u   7 B2u  11 B1u  17 Ag    7 B2g   7 B3g  18 Ag    8 B2u                
  1.372   1.477   1.477   1.548   1.548   1.571   1.571   1.667
  8 B3u   9 B3u   9 B2u  19 Ag    5 B1g   2 Au   12 B1u  13 B1u                
  1.720   1.720   1.777   1.777   1.821   1.821   1.826   2.002
  8 B2g   8 B3g  20 Ag    6 B1g   9 B2g   9 B3g  21 Ag   14 B1u                
  2.161   2.161   2.317   2.317   2.600   2.600   2.771   3.107
 10 B3u  10 B2u   3 Au   15 B1u  10 B2g  10 B3g  16 B1u  22 Ag                 
  3.389   3.389   4.048   4.364   4.364   4.447   4.447   4.529
 11 B3u  11 B2u  23 Ag   11 B2g  11 B3g  24 Ag    7 B1g  12 B3u                
  4.529   4.562   4.661   4.661   4.737   5.043   5.043   5.157
 12 B2u  17 B1u  13 B2u  13 B3u  25 Ag   12 B2g  12 B3g   4 Au                 
  5.157   5.202   5.226   5.226   5.532   5.532   5.595   5.595
 18 B1u  19 B1u  26 Ag    8 B1g  13 B2g  13 B3g  14 B3u  14 B2u                
  5.747   5.747   6.773   6.807   6.900   6.900  11.488  19.321
  5 Au   20 B1u  21 B1u  27 Ag   14 B2g  14 B3g  28 Ag   22 B1u                
 --------------------------------------------------------------

          Ground-State Mulliken Net Atomic Charges

     Atom                 Charge (a.u.)
  ----------------------------------------
      1 N                    -0.060738
      2 N                    -0.060738
      3 GH                    0.121477
  ----------------------------------------
  Sum of atomic charges =     0.000000

 -----------------------------------------------------------------
                    Cartesian Multipole Moments
 -----------------------------------------------------------------
    Charge (ESU x 10^10)
                 0.0000
    Dipole Moment (Debye)
         X       0.0000      Y      -0.0000      Z       0.0000
       Tot       0.0000
    Quadrupole Moments (Debye-Ang)
        XX     -10.3959     XY      -0.0000     YY     -10.3959
        XZ       0.0000     YZ       0.0000     ZZ     -11.6464
    Octopole Moments (Debye-Ang^2)
       XXX       0.0000    XXY      -0.0000    XYY       0.0000
       YYY      -0.0000    XXZ       0.0000    XYZ      -0.0000
       YYZ       0.0000    XZZ       0.0000    YZZ      -0.0000
       ZZZ       0.0000
    Hexadecapole Moments (Debye-Ang^3)
      XXXX      -9.3164   XXXY      -0.0000   XXYY      -3.1055
      XYYY      -0.0000   YYYY      -9.3164   XXXZ      -0.0000
      XXYZ       0.0000   XYYZ      -0.0000   YYYZ       0.0000
      XXZZ      -6.3215   XYZZ      -0.0000   YYZZ      -6.3215
      XZZZ      -0.0000   YZZZ       0.0000   ZZZZ     -31.5642
 -----------------------------------------------------------------
Archival summary:
1\1\node10\SP\ProcedureUnspecified\BasisUnspecified\2h1\gayverjr\MonApr2613:32:522021MonApr2613:32:522021\0\\#,ProcedureUnspecified,BasisUnspecified,\\0,1\N\Gh,1,0.548757\N,2,0.548757,1,180\\HF=-108.984867\\@

 Total job time:  336.17s(wall), 2096.69s(cpu) 
 Mon Apr 26 13:32:52 2021

        *************************************************************
        *                                                           *
        *  Thank you very much for using Q-Chem.  Have a nice day.  *
        *                                                           *
        *************************************************************


