[Molden Format]
[Atoms] AU
  N     1    7     0.0000000000    0.0000000000    1.0345000700        
  N     2    7     0.0000000000    0.0000000000   -1.0345000700        
[5D]
[7F]
[GTO]
  1  0
   s     8 1.00
  0.114200D+05  0.534981D-03
  0.171200D+04  0.413766D-02
  0.389300D+03  0.212509D-01
  0.110000D+03  0.825763D-01
  0.355700D+02  0.238413D+00
  0.125400D+02  0.443432D+00
  0.464400D+01  0.355432D+00
  0.511800D+00 -0.870290D-02
   s     8 1.00
  0.114200D+05 -0.198777D-03
  0.171200D+04 -0.154700D-02
  0.389300D+03 -0.799256D-02
  0.110000D+03 -0.320256D-01
  0.355700D+02 -0.991102D-01
  0.125400D+02 -0.228293D+00
  0.464400D+01 -0.298183D+00
  0.511800D+00  0.103700D+01
   s     1 1.00
  0.129300D+01  0.100000D+01
   s     1 1.00
  0.178700D+00  0.100000D+01
   s     1 1.00
  0.893500D-01  0.100000D+01
   s     1 1.00
  0.446750D-01  0.100000D+01
   p     3 1.00
  0.266300D+02  0.398072D-01
  0.594800D+01  0.249003D+00
  0.174200D+01  0.810480D+00
   p     1 1.00
  0.555000D+00  0.100000D+01
   p     1 1.00
  0.172500D+00  0.100000D+01
   p     1 1.00
  0.115000D+00  0.100000D+01
   p     1 1.00
  0.766667D-01  0.100000D+01
   p     1 1.00
  0.511111D-01  0.100000D+01
   p     1 1.00
  0.340741D-01  0.100000D+01
   p     1 1.00
  0.227160D-01  0.100000D+01
   d     1 1.00
  0.165400D+01  0.100000D+01
   d     1 1.00
  0.469000D+00  0.100000D+01
   d     1 1.00
  0.234500D+00  0.100000D+01
   d     1 1.00
  0.117250D+00  0.100000D+01
   f     1 1.00
  0.109300D+01  0.100000D+01
  
  2  0
   s     8 1.00
  0.114200D+05  0.534981D-03
  0.171200D+04  0.413766D-02
  0.389300D+03  0.212509D-01
  0.110000D+03  0.825763D-01
  0.355700D+02  0.238413D+00
  0.125400D+02  0.443432D+00
  0.464400D+01  0.355432D+00
  0.511800D+00 -0.870290D-02
   s     8 1.00
  0.114200D+05 -0.198777D-03
  0.171200D+04 -0.154700D-02
  0.389300D+03 -0.799256D-02
  0.110000D+03 -0.320256D-01
  0.355700D+02 -0.991102D-01
  0.125400D+02 -0.228293D+00
  0.464400D+01 -0.298183D+00
  0.511800D+00  0.103700D+01
   s     1 1.00
  0.129300D+01  0.100000D+01
   s     1 1.00
  0.178700D+00  0.100000D+01
   s     1 1.00
  0.893500D-01  0.100000D+01
   s     1 1.00
  0.446750D-01  0.100000D+01
   p     3 1.00
  0.266300D+02  0.398072D-01
  0.594800D+01  0.249003D+00
  0.174200D+01  0.810480D+00
   p     1 1.00
  0.555000D+00  0.100000D+01
   p     1 1.00
  0.172500D+00  0.100000D+01
   p     1 1.00
  0.115000D+00  0.100000D+01
   p     1 1.00
  0.766667D-01  0.100000D+01
   p     1 1.00
  0.511111D-01  0.100000D+01
   p     1 1.00
  0.340741D-01  0.100000D+01
   p     1 1.00
  0.227160D-01  0.100000D+01
   d     1 1.00
  0.165400D+01  0.100000D+01
   d     1 1.00
  0.469000D+00  0.100000D+01
   d     1 1.00
  0.234500D+00  0.100000D+01
   d     1 1.00
  0.117250D+00  0.100000D+01
   f     1 1.00
  0.109300D+01  0.100000D+01
  
[MO]
 Sym= __1_Ag_
 Ene=   1.00000000000000     
 Spin= Alpha
 Occup=    1.00000000000000     
                     1  0.689876674247774     
                     2 -1.117401057713145E-003
                     3  3.081099467436539E-002
                     4  4.152271256025027E-003
                     5 -1.470236731455746E-003
                     6  2.290372580299835E-005
                     7  0.000000000000000E+000
                     8  0.000000000000000E+000
                     9 -2.286797879863291E-003
                    10  0.000000000000000E+000
                    11  0.000000000000000E+000
                    12  5.945703873155082E-004
                    13  0.000000000000000E+000
                    14  0.000000000000000E+000
                    15 -9.109440210095650E-004
                    16  0.000000000000000E+000
                    17  0.000000000000000E+000
                    18  3.896113382593808E-004
                    19  0.000000000000000E+000
                    20  0.000000000000000E+000
                    21  2.198979025451923E-003
                    22  0.000000000000000E+000
                    23  0.000000000000000E+000
                    24 -1.234353768802267E-003
                    25  0.000000000000000E+000
                    26  0.000000000000000E+000
                    27  4.593699080942944E-004
                    28  0.000000000000000E+000
                    29  0.000000000000000E+000
                    30 -6.291551532291676E-005
                    31  5.681453553735848E-004
                    32  0.000000000000000E+000
                    33  0.000000000000000E+000
                    34  6.493227601747302E-006
                    35  0.000000000000000E+000
                    36 -8.795316789935835E-004
                    37  0.000000000000000E+000
                    38  0.000000000000000E+000
                    39  8.283214221266980E-006
                    40  0.000000000000000E+000
                    41  1.233523702508990E-003
                    42  0.000000000000000E+000
                    43  0.000000000000000E+000
                    44 -4.911986786386568E-006
                    45  0.000000000000000E+000
                    46 -1.005628049401598E-003
                    47  0.000000000000000E+000
                    48  0.000000000000000E+000
                    49  1.622564425708840E-006
                    50  0.000000000000000E+000
                    51 -1.952074492730987E-004
                    52  0.000000000000000E+000
                    53  0.000000000000000E+000
                    54  3.524819178778960E-006
                    55  0.000000000000000E+000
                    56  0.000000000000000E+000
                    57  0.000000000000000E+000
                    58  0.689876674247774     
                    59 -1.117401057713145E-003
                    60  3.081099467436539E-002
                    61  4.152271256025027E-003
                    62 -1.470236731455746E-003
                    63  2.290372580299835E-005
                    64  0.000000000000000E+000
                    65  0.000000000000000E+000
                    66  2.286797879863291E-003
                    67  0.000000000000000E+000
                    68  0.000000000000000E+000
                    69 -5.945703873155082E-004
                    70  0.000000000000000E+000
                    71  0.000000000000000E+000
                    72  9.109440210095650E-004
                    73  0.000000000000000E+000
                    74  0.000000000000000E+000
                    75 -3.896113382593808E-004
                    76  0.000000000000000E+000
                    77  0.000000000000000E+000
                    78 -2.198979025451923E-003
                    79  0.000000000000000E+000
                    80  0.000000000000000E+000
                    81  1.234353768802267E-003
                    82  0.000000000000000E+000
                    83  0.000000000000000E+000
                    84 -4.593699080942944E-004
                    85  0.000000000000000E+000
                    86  0.000000000000000E+000
                    87  6.291551532291676E-005
                    88  5.681453553735848E-004
                    89  0.000000000000000E+000
                    90  0.000000000000000E+000
                    91  6.493227601747302E-006
                    92  0.000000000000000E+000
                    93 -8.795316789935835E-004
                    94  0.000000000000000E+000
                    95  0.000000000000000E+000
                    96  8.283214221266980E-006
                    97  0.000000000000000E+000
                    98  1.233523702508990E-003
                    99  0.000000000000000E+000
                   100  0.000000000000000E+000
                   101 -4.911986786386568E-006
                   102  0.000000000000000E+000
                   103 -1.005628049401598E-003
                   104  0.000000000000000E+000
                   105  0.000000000000000E+000
                   106  1.622564425708840E-006
                   107  0.000000000000000E+000
                   108  1.952074492730987E-004
                   109  0.000000000000000E+000
                   110  0.000000000000000E+000
                   111 -3.524819178778960E-006
                   112  0.000000000000000E+000
                   113  0.000000000000000E+000
                   114  0.000000000000000E+000
 Sym= __2_Ag_
 Ene=   2.00000000000000     
 Spin= Alpha
 Occup=    1.00000000000000     
                     1 -1.563388930676142E-002
                     2  0.367279963581908     
                     3  8.839841255634599E-002
                     4  6.483260009021513E-002
                     5 -7.485593915353991E-003
                     6  1.360940173719523E-002
                     7  0.000000000000000E+000
                     8  0.000000000000000E+000
                     9 -0.129257995776849     
                    10  0.000000000000000E+000
                    11  0.000000000000000E+000
                    12 -0.141258965485194     
                    13  0.000000000000000E+000
                    14  0.000000000000000E+000
                    15  5.148042666942310E-002
                    16  0.000000000000000E+000
                    17  0.000000000000000E+000
                    18 -0.149302222067567     
                    19  0.000000000000000E+000
                    20  0.000000000000000E+000
                    21  0.138573676774863     
                    22  0.000000000000000E+000
                    23  0.000000000000000E+000
                    24 -0.142708974720921     
                    25  0.000000000000000E+000
                    26  0.000000000000000E+000
                    27  7.253935340939774E-002
                    28  0.000000000000000E+000
                    29  0.000000000000000E+000
                    30 -1.620565278057322E-002
                    31  2.061339870323944E-002
                    32  0.000000000000000E+000
                    33  0.000000000000000E+000
                    34 -3.484842380857742E-005
                    35  0.000000000000000E+000
                    36  2.817056264868939E-002
                    37  0.000000000000000E+000
                    38  0.000000000000000E+000
                    39 -2.092666236118256E-004
                    40  0.000000000000000E+000
                    41 -2.877753291269118E-002
                    42  0.000000000000000E+000
                    43  0.000000000000000E+000
                    44 -2.975557993948092E-006
                    45  0.000000000000000E+000
                    46  3.138788976970206E-002
                    47  0.000000000000000E+000
                    48  0.000000000000000E+000
                    49 -2.532439809887570E-005
                    50  0.000000000000000E+000
                    51  7.865695784307110E-003
                    52  0.000000000000000E+000
                    53  0.000000000000000E+000
                    54  1.319866643762440E-004
                    55  0.000000000000000E+000
                    56  0.000000000000000E+000
                    57  0.000000000000000E+000
                    58 -1.563388930676142E-002
                    59  0.367279963581908     
                    60  8.839841255634599E-002
                    61  6.483260009021513E-002
                    62 -7.485593915353991E-003
                    63  1.360940173719523E-002
                    64  0.000000000000000E+000
                    65  0.000000000000000E+000
                    66  0.129257995776849     
                    67  0.000000000000000E+000
                    68  0.000000000000000E+000
                    69  0.141258965485194     
                    70  0.000000000000000E+000
                    71  0.000000000000000E+000
                    72 -5.148042666942310E-002
                    73  0.000000000000000E+000
                    74  0.000000000000000E+000
                    75  0.149302222067567     
                    76  0.000000000000000E+000
                    77  0.000000000000000E+000
                    78 -0.138573676774863     
                    79  0.000000000000000E+000
                    80  0.000000000000000E+000
                    81  0.142708974720921     
                    82  0.000000000000000E+000
                    83  0.000000000000000E+000
                    84 -7.253935340939774E-002
                    85  0.000000000000000E+000
                    86  0.000000000000000E+000
                    87  1.620565278057322E-002
                    88  2.061339870323944E-002
                    89  0.000000000000000E+000
                    90  0.000000000000000E+000
                    91 -3.484842380857742E-005
                    92  0.000000000000000E+000
                    93  2.817056264868939E-002
                    94  0.000000000000000E+000
                    95  0.000000000000000E+000
                    96 -2.092666236118256E-004
                    97  0.000000000000000E+000
                    98 -2.877753291269118E-002
                    99  0.000000000000000E+000
                   100  0.000000000000000E+000
                   101 -2.975557993948092E-006
                   102  0.000000000000000E+000
                   103  3.138788976970206E-002
                   104  0.000000000000000E+000
                   105  0.000000000000000E+000
                   106 -2.532439809887570E-005
                   107  0.000000000000000E+000
                   108 -7.865695784307110E-003
                   109  0.000000000000000E+000
                   110  0.000000000000000E+000
                   111 -1.319866643762440E-004
                   112  0.000000000000000E+000
                   113  0.000000000000000E+000
                   114  0.000000000000000E+000
 Sym= __3_Ag_
 Ene=   3.00000000000000     
 Spin= Alpha
 Occup=    1.00000000000000     
                     1  4.234705484625129E-003
                     2  0.138959315186417     
                     3  3.631572842517589E-002
                     4  0.264216060619353     
                     5  3.446498026643960E-002
                     6  2.074780921245522E-003
                     7  0.000000000000000E+000
                     8  0.000000000000000E+000
                     9  0.250547411380989     
                    10  0.000000000000000E+000
                    11  0.000000000000000E+000
                    12  0.293182161387389     
                    13  0.000000000000000E+000
                    14  0.000000000000000E+000
                    15  0.180020155385027     
                    16  0.000000000000000E+000
                    17  0.000000000000000E+000
                    18 -7.833546716776116E-002
                    19  0.000000000000000E+000
                    20  0.000000000000000E+000
                    21  0.136501269327155     
                    22  0.000000000000000E+000
                    23  0.000000000000000E+000
                    24 -4.978787021658952E-002
                    25  0.000000000000000E+000
                    26  0.000000000000000E+000
                    27  1.634598819000582E-002
                    28  0.000000000000000E+000
                    29  0.000000000000000E+000
                    30 -3.362844777965994E-003
                    31 -1.916272733718511E-002
                    32  0.000000000000000E+000
                    33  0.000000000000000E+000
                    34  3.178479013362182E-005
                    35  0.000000000000000E+000
                    36 -2.883027933564167E-002
                    37  0.000000000000000E+000
                    38  0.000000000000000E+000
                    39 -3.923378563884096E-005
                    40  0.000000000000000E+000
                    41  2.086847710915034E-002
                    42  0.000000000000000E+000
                    43  0.000000000000000E+000
                    44 -1.031228055340228E-004
                    45  0.000000000000000E+000
                    46 -3.565265154246711E-002
                    47  0.000000000000000E+000
                    48  0.000000000000000E+000
                    49 -2.136215476414912E-004
                    50  0.000000000000000E+000
                    51 -6.115473689088820E-003
                    52  0.000000000000000E+000
                    53  0.000000000000000E+000
                    54 -1.383670738183244E-004
                    55  0.000000000000000E+000
                    56  0.000000000000000E+000
                    57  0.000000000000000E+000
                    58  4.234705484625129E-003
                    59  0.138959315186417     
                    60  3.631572842517589E-002
                    61  0.264216060619353     
                    62  3.446498026643960E-002
                    63  2.074780921245522E-003
                    64  0.000000000000000E+000
                    65  0.000000000000000E+000
                    66 -0.250547411380989     
                    67  0.000000000000000E+000
                    68  0.000000000000000E+000
                    69 -0.293182161387389     
                    70  0.000000000000000E+000
                    71  0.000000000000000E+000
                    72 -0.180020155385027     
                    73  0.000000000000000E+000
                    74  0.000000000000000E+000
                    75  7.833546716776116E-002
                    76  0.000000000000000E+000
                    77  0.000000000000000E+000
                    78 -0.136501269327155     
                    79  0.000000000000000E+000
                    80  0.000000000000000E+000
                    81  4.978787021658952E-002
                    82  0.000000000000000E+000
                    83  0.000000000000000E+000
                    84 -1.634598819000582E-002
                    85  0.000000000000000E+000
                    86  0.000000000000000E+000
                    87  3.362844777965994E-003
                    88 -1.916272733718511E-002
                    89  0.000000000000000E+000
                    90  0.000000000000000E+000
                    91  3.178479013362182E-005
                    92  0.000000000000000E+000
                    93 -2.883027933564167E-002
                    94  0.000000000000000E+000
                    95  0.000000000000000E+000
                    96 -3.923378563884096E-005
                    97  0.000000000000000E+000
                    98  2.086847710915034E-002
                    99  0.000000000000000E+000
                   100  0.000000000000000E+000
                   101 -1.031228055340228E-004
                   102  0.000000000000000E+000
                   103 -3.565265154246711E-002
                   104  0.000000000000000E+000
                   105  0.000000000000000E+000
                   106 -2.136215476414912E-004
                   107  0.000000000000000E+000
                   108  6.115473689088820E-003
                   109  0.000000000000000E+000
                   110  0.000000000000000E+000
                   111  1.383670738183244E-004
                   112  0.000000000000000E+000
                   113  0.000000000000000E+000
                   114  0.000000000000000E+000
 Sym= __4_Ag_
 Ene=   4.00000000000000     
 Spin= Alpha
 Occup=    1.00000000000000     
                     1 -1.531866297513858E-003
                     2 -3.125436957771399E-003
                     3 -3.536076082953043E-003
                     4  0.192399293298425     
                     5  -1.09714092070672     
                     6   1.22863857544948     
                     7  0.000000000000000E+000
                     8  0.000000000000000E+000
                     9 -3.519236128366441E-003
                    10  0.000000000000000E+000
                    11  0.000000000000000E+000
                    12  2.619235875260705E-002
                    13  0.000000000000000E+000
                    14  0.000000000000000E+000
                    15 -0.787096687869771     
                    16  0.000000000000000E+000
                    17  0.000000000000000E+000
                    18   3.60444387967574     
                    19  0.000000000000000E+000
                    20  0.000000000000000E+000
                    21  -9.04736234120088     
                    22  0.000000000000000E+000
                    23  0.000000000000000E+000
                    24   13.8758137820537     
                    25  0.000000000000000E+000
                    26  0.000000000000000E+000
                    27  -16.0828331610965     
                    28  0.000000000000000E+000
                    29  0.000000000000000E+000
                    30   11.0230913313505     
                    31 -3.621384970936313E-003
                    32  0.000000000000000E+000
                    33  0.000000000000000E+000
                    34 -1.518671286105639E-005
                    35  0.000000000000000E+000
                    36  3.998408179666722E-002
                    37  0.000000000000000E+000
                    38  0.000000000000000E+000
                    39  1.625704172989997E-004
                    40  0.000000000000000E+000
                    41 -0.136024378812810     
                    42  0.000000000000000E+000
                    43  0.000000000000000E+000
                    44 -4.166615788115074E-004
                    45  0.000000000000000E+000
                    46  0.244620178646758     
                    47  0.000000000000000E+000
                    48  0.000000000000000E+000
                    49  5.551888793923368E-004
                    50  0.000000000000000E+000
                    51  2.806945982816478E-003
                    52  0.000000000000000E+000
                    53  0.000000000000000E+000
                    54  1.644164162098124E-006
                    55  0.000000000000000E+000
                    56  0.000000000000000E+000
                    57  0.000000000000000E+000
                    58 -1.531866297513858E-003
                    59 -3.125436957771399E-003
                    60 -3.536076082953043E-003
                    61  0.192399293298425     
                    62  -1.09714092070672     
                    63   1.22863857544948     
                    64  0.000000000000000E+000
                    65  0.000000000000000E+000
                    66  3.519236128366441E-003
                    67  0.000000000000000E+000
                    68  0.000000000000000E+000
                    69 -2.619235875260705E-002
                    70  0.000000000000000E+000
                    71  0.000000000000000E+000
                    72  0.787096687869771     
                    73  0.000000000000000E+000
                    74  0.000000000000000E+000
                    75  -3.60444387967574     
                    76  0.000000000000000E+000
                    77  0.000000000000000E+000
                    78   9.04736234120088     
                    79  0.000000000000000E+000
                    80  0.000000000000000E+000
                    81  -13.8758137820537     
                    82  0.000000000000000E+000
                    83  0.000000000000000E+000
                    84   16.0828331610965     
                    85  0.000000000000000E+000
                    86  0.000000000000000E+000
                    87  -11.0230913313505     
                    88 -3.621384970936313E-003
                    89  0.000000000000000E+000
                    90  0.000000000000000E+000
                    91 -1.518671286105639E-005
                    92  0.000000000000000E+000
                    93  3.998408179666722E-002
                    94  0.000000000000000E+000
                    95  0.000000000000000E+000
                    96  1.625704172989997E-004
                    97  0.000000000000000E+000
                    98 -0.136024378812810     
                    99  0.000000000000000E+000
                   100  0.000000000000000E+000
                   101 -4.166615788115074E-004
                   102  0.000000000000000E+000
                   103  0.244620178646758     
                   104  0.000000000000000E+000
                   105  0.000000000000000E+000
                   106  5.551888793923368E-004
                   107  0.000000000000000E+000
                   108 -2.806945982816478E-003
                   109  0.000000000000000E+000
                   110  0.000000000000000E+000
                   111 -1.644164162098124E-006
                   112  0.000000000000000E+000
                   113  0.000000000000000E+000
                   114  0.000000000000000E+000
 Sym= __5_Ag_
 Ene=   5.00000000000000     
 Spin= Alpha
 Occup=    1.00000000000000     
                     1  1.012492310807102E-003
                     2  4.440612058983910E-002
                     3  9.343594769813210E-003
                     4 -0.100657889138230     
                     5   1.60398579266544     
                     6  -1.58968942349652     
                     7  0.000000000000000E+000
                     8  0.000000000000000E+000
                     9  2.689953830505187E-002
                    10  0.000000000000000E+000
                    11  0.000000000000000E+000
                    12  5.907334552360025E-002
                    13  0.000000000000000E+000
                    14  0.000000000000000E+000
                    15 -0.448077340786408     
                    16  0.000000000000000E+000
                    17  0.000000000000000E+000
                    18   2.01495960192147     
                    19  0.000000000000000E+000
                    20  0.000000000000000E+000
                    21  -4.59999132158121     
                    22  0.000000000000000E+000
                    23  0.000000000000000E+000
                    24   10.3087764396904     
                    25  0.000000000000000E+000
                    26  0.000000000000000E+000
                    27  -11.7327283121954     
                    28  0.000000000000000E+000
                    29  0.000000000000000E+000
                    30   5.25207019774602     
                    31  2.964570688327789E-003
                    32  0.000000000000000E+000
                    33  0.000000000000000E+000
                    34 -1.179065280587011E-004
                    35  0.000000000000000E+000
                    36 -3.409090372317782E-002
                    37  0.000000000000000E+000
                    38  0.000000000000000E+000
                    39  1.284519381661538E-003
                    40  0.000000000000000E+000
                    41  0.171186339787880     
                    42  0.000000000000000E+000
                    43  0.000000000000000E+000
                    44 -3.431565489162170E-003
                    45  0.000000000000000E+000
                    46 -0.391722439389501     
                    47  0.000000000000000E+000
                    48  0.000000000000000E+000
                    49  4.700860645561306E-003
                    50  0.000000000000000E+000
                    51  7.575822525599095E-004
                    52  0.000000000000000E+000
                    53  0.000000000000000E+000
                    54 -1.044174388977874E-005
                    55  0.000000000000000E+000
                    56  0.000000000000000E+000
                    57  0.000000000000000E+000
                    58  1.012492310807102E-003
                    59  4.440612058983910E-002
                    60  9.343594769813210E-003
                    61 -0.100657889138230     
                    62   1.60398579266544     
                    63  -1.58968942349652     
                    64  0.000000000000000E+000
                    65  0.000000000000000E+000
                    66 -2.689953830505187E-002
                    67  0.000000000000000E+000
                    68  0.000000000000000E+000
                    69 -5.907334552360025E-002
                    70  0.000000000000000E+000
                    71  0.000000000000000E+000
                    72  0.448077340786408     
                    73  0.000000000000000E+000
                    74  0.000000000000000E+000
                    75  -2.01495960192147     
                    76  0.000000000000000E+000
                    77  0.000000000000000E+000
                    78   4.59999132158121     
                    79  0.000000000000000E+000
                    80  0.000000000000000E+000
                    81  -10.3087764396904     
                    82  0.000000000000000E+000
                    83  0.000000000000000E+000
                    84   11.7327283121954     
                    85  0.000000000000000E+000
                    86  0.000000000000000E+000
                    87  -5.25207019774602     
                    88  2.964570688327789E-003
                    89  0.000000000000000E+000
                    90  0.000000000000000E+000
                    91 -1.179065280587011E-004
                    92  0.000000000000000E+000
                    93 -3.409090372317782E-002
                    94  0.000000000000000E+000
                    95  0.000000000000000E+000
                    96  1.284519381661538E-003
                    97  0.000000000000000E+000
                    98  0.171186339787880     
                    99  0.000000000000000E+000
                   100  0.000000000000000E+000
                   101 -3.431565489162170E-003
                   102  0.000000000000000E+000
                   103 -0.391722439389501     
                   104  0.000000000000000E+000
                   105  0.000000000000000E+000
                   106  4.700860645561306E-003
                   107  0.000000000000000E+000
                   108 -7.575822525599095E-004
                   109  0.000000000000000E+000
                   110  0.000000000000000E+000
                   111  1.044174388977874E-005
                   112  0.000000000000000E+000