                  Welcome to Q-Chem
     A Quantum Leap Into The Future Of Chemistry


 Q-Chem 6.0 (devel), Q-Chem, Inc., Pleasanton, CA (2022)

 E. Epifanovsky,  A. T. B. Gilbert,  Xintian Feng,  Joonho Lee,  Yuezhi Mao,  
 N. Mardirossian,  P. Pokhilko,  A. White,  M. Wormit,  M. P. Coons,  
 A. L. Dempwolff,  Zhengting Gan,  D. Hait,  P. R. Horn,  L. D. Jacobson,  
 I. Kaliman,  J. Kussmann,  A. W. Lange,  Ka Un Lao,  D. S. Levine,  Jie Liu,  
 S. C. McKenzie,  A. F. Morrison,  K. Nanda,  F. Plasser,  D. R. Rehn,  
 M. L. Vidal,  Zhi-Qiang You,  Ying Zhu,  B. Alam,  B. Albrecht,  
 A. Aldossary,  E. Alguire,  J. H. Andersen,  V. Athavale,  D. Barton,  
 K. Begam,  A. Behn,  N. Bellonzi,  Y. A. Bernard,  E. J. Berquist,  
 H. Burton,  A. Carreras,  K. Carter-Fenk,  Romit Chakraborty,  
 Chandrima Chakravarty,  Junhan Chen,  A. D. Chien,  K. D. Closser,  
 V. Cofer-Shabica,  L. Cunha,  S. Dasgupta,  Jia Deng,  M. de Wergifosse,  
 M. Diedenhofen,  Hainam Do,  S. Ehlert,  Po-Tung Fang,  S. Fatehi,  
 Qingguo Feng,  T. Friedhoff,  B. Ganoe,  J. Gayvert,  Qinghui Ge,  
 G. Gidofalvi,  M. Goldey,  J. Gomes,  C. Gonzalez-Espinoza,  S. Gulania,  
 A. Gunina,  J. A. Gyamfi,  M. W. D. Hanson-Heine,  P. H. P. Harbach,  
 A. W. Hauser,  M. F. Herbst,  M. Hernandez Vera,  M. Hodecker,  
 Z. C. Holden,  S. Houck,  Xunkun Huang,  Kerwin Hui,  B. C. Huynh,  
 K. Ikeda,  M. Ivanov,  Hyunjun Ji,  Zuxin Jin,  Hanjie Jiang,  B. Kaduk,  
 S. Kaehler,  R. Kang,  K. Khistyaev,  Jaehoon Kim,  Yongbin Kim,  
 P. Klunzinger,  Z. Koczor-Benda,  Joong Hoon Koh,  D. Kosenkov,  
 Saikiran Kotaru,  L. Koulias,  T. Kowalczyk,  C. M. Krauter,  K. Kue,  
 A. Kunitsa,  T. Kus,  A. Landau,  K. V. Lawler,  D. Lefrancois,  S. Lehtola,  
 Rain Li,  Shaozhi Li,  Yi-Pei Li,  Jiashu Liang,  M. Liebenthal,  
 Hung-Hsuan Lin,  You-Sheng Lin,  Fenglai Liu,  Kuan-Yu Liu,  
 M. Loipersberger,  A. Luenser,  C. Malbon,  A. Manjanath,  P. Manohar,  
 E. Mansoor,  S. F. Manzer,  Shan-Ping Mao,  A. V. Marenich,  T. Markovich,  
 S. Mason,  F. Matz,  S. A. Maurer,  P. F. McLaughlin,  M. F. S. J. Menger,  
 J.-M. Mewes,  S. A. Mewes,  P. Morgante,  Mohammad Mostafanejad,  
 J. W. Mullinax,  K. J. Oosterbaan,  G. Paran,  V. Parravicini,  
 Alexander C. Paul,  Suranjan K. Paul,  F. Pavosevic,  Zheng Pei,  S. Prager,  
 E. I. Proynov,  E. Ramos,  B. Rana,  A. E. Rask,  A. Rettig,  R. M. Richard,  
 F. Rob,  E. Rossomme,  T. Scheele,  M. Scheurer,  M. Schneider,  
 P. E. Schneider,  N. Sergueev,  S. M. Sharada,  Hengyuan Shen,  
 W. Skomorowski,  D. W. Small,  C. J. Stein,  Yingli Su,  Yu-Chuan Su,  
 E. J. Sundstrom,  Zhen Tao,  J. Thirman,  Hung-Yi Tsai,  T. Tsuchimochi,  
 N. M. Tubman,  C. Utku,  S. P. Veccham,  O. Vydrov,  J. Wenzel,  
 Jonathan Wong,  J. Witte,  A. Yamada,  Chou-Hsun Yang,  Kun Yao,  
 S. Yeganeh,  S. R. Yost,  A. Zech,  F. Zeller,  Igor Ying Zhang,  
 Xing Zhang,  Yu Zhang,  D. Zuev,  A. Aspuru-Guzik,  A. T. Bell,  
 N. A. Besley,  K. B. Bravaya,  B. R. Brooks,  D. Casanova,  Jeng-Da Chai,  
 Hsing-Ta Chen,  S. Coriani,  C. J. Cramer,  A. E. DePrince, III,  
 R. A. DiStasio Jr.,  A. Dreuw,  B. D. Dunietz,  T. R. Furlani,  
 W. A. Goddard III,  S. Grimme,  S. Hammes-Schiffer,  T. Head-Gordon,  
 W. J. Hehre,  Chao-Ping Hsu,  T.-C. Jagau,  Yousung Jung,  A. Klamt,  
 Jing Kong,  D. S. Lambrecht,  Xiangyuan Li,  WanZhen Liang,  N. J. Mayhall,  
 C. W. McCurdy,  J. B. Neaton,  T. Neudecker,  C. Ochsenfeld,  
 J. A. Parkhill,  R. Peverati,  V. A. Rassolov,  Haisheng Ren,  Yihan Shao,  
 L. V. Slipchenko,  R. P. Steele,  J. E. Subotnik,  A. J. W. Thom,  
 A. Tkatchenko,  D. G. Truhlar,  T. Van Voorhis,  Fan Wang,  
 T. A. Wesolowski,  K. B. Whaley,  H. L. Woodcock III,  P. M. Zimmerman,  
 S. Faraji,  P. M. W. Gill,  M. Head-Gordon,  J. M. Herbert,  A. I. Krylov

 Contributors to earlier versions of Q-Chem not listed above: 
 R. D. Adamson,  B. Austin,  R. Baer,  J. Baker,  G. J. O. Beran,  
 K. Brandhorst,  S. T. Brown,  E. F. C. Byrd,  Arup K. Chakraborty,  
 G. K. L. Chan,  Chun-Min Chang,  Yunqing Chen,  C.-L. Cheng,  
 Siu Hung Chien,  D. M. Chipman,  D. L. Crittenden,  H. Dachsel,  
 R. J. Doerksen,  A. D. Dutoi,  R. G. Edgar,  J. Fosso-Tande,  
 L. Fusti-Molnar,  D. Ghosh,  A. Ghysels,  A. Golubeva-Zadorozhnaya,  
 J. Gonthier,  M. S. Gordon,  S. R. Gwaltney,  G. Hawkins,  J. E. Herr,  
 A. Heyden,  S. Hirata,  E. G. Hohenstein,  G. Kedziora,  F. J. Keil,  
 C. Kelley,  Jihan Kim,  R. A. King,  R. Z. Khaliullin,  P. P. Korambath,  
 W. Kurlancheek,  A. Laurent,  A. M. Lee,  M. S. Lee,  S. V. Levchenko,  
 Ching Yeh Lin,  D. Liotard,  E. Livshits,  R. C. Lochan,  I. Lotan,  
 L. A. Martinez-Martinez,  P. E. Maslen,  N. Nair,  D. P. O'Neill,  
 D. Neuhauser,  E. Neuscamman,  C. M. Oana,  R. Olivares-Amaya,  R. Olson,  
 T. M. Perrine,  B. Peters,  P. A. Pieniazek,  A. Prociuk,  Y. M. Rhee,  
 J. Ritchie,  M. A. Rohrdanz,  E. Rosta,  N. J. Russ,  H. F. Schaefer III,  
 M. W. Schmidt,  N. E. Schultz,  S. Sharma,  N. Shenvi,  C. D. Sherrill,  
 A. C. Simmonett,  A. Sodt,  T. Stein,  D. Stuck,  K. S. Thanthiriwatte,  
 V. Vanovschi,  L. Vogt,  Tao Wang,  A. Warshel,  M. A. Watson,  
 C. F. Williams,  Q. Wu,  X. Xu,  Jun Yang,  W. Zhang,  Yan Zhao

   Please cite Q-Chem as follows:
  "Software for the frontiers of quantum chemistry:
   An overview of developments in the Q-Chem 5 package"
   J. Chem. Phys. 155, 084801 (2021)
   https://doi.org/10.1063/5.0055522 (open access)

 Q-Chem 6.0.0 for Intel X86 EM64T Linux

 Parts of Q-Chem use Armadillo 9.900.5 (Nocturnal Misbehaviour).
 http://arma.sourceforge.net/

 Q-Chem begins on Tue Apr 11 15:10:49 2023  

 Host: node7
0

     Scratch files written to /scratch/sbkmdl/NCCT2S5P2D_0p545_CAP_EOMCCSD_State7.1406480182.saved//
 Processing $rem in /home/qcsoftware/qchem/builds/qc601/qc6012/config/preferences:
 Processing $rem in /home/sbkmdl/.qchemrc:
 EOM-IP/EA analytic gradients are available only for UHF references
 Setting UNRESTRICTED=TRUE

 Checking the input file for inconsistencies... 	...done.

--------------------------------------------------------------
User input:
--------------------------------------------------------------
$molecule
0       1
N        0.0     0.0     0.545
N        0.0     0.0     -0.545
$end
$rem
   METHOD          eom-ccsd
   BASIS            gen
   jobtype    force
   GUI 2
   EA_STATES       [0,0,7,0,0,0,0,0]
   CC_TRANS_PROP 2
   CC_STATE_TO_OPT  [3, 1] 
![3, 2] [3, 3] [3, 4]
   MEM_TOTAL 8000
!   CALC_NAC  2
   N_FROZEN_CORE 0
   complex_ccman 1
$end

$basis
N     0
S   10   1.00
      1.142000D+04           5.230000D-04
      1.712000D+03           4.045000D-03
      3.893000D+02           2.077500D-02
      1.100000D+02           8.072700D-02
      3.557000D+01           2.330740D-01
      1.254000D+01           4.335010D-01
      4.644000D+00           3.474720D-01
      1.293000D+00           4.126200D-02
      5.118000D-01          -8.508000D-03
      1.787000D-01           2.384000D-03
S   1   1.00
      1.293000D+00           1.000000D+00
S   10   1.00
      1.142000D+04          -1.150000D-04
      1.712000D+03          -8.950000D-04
      3.893000D+02          -4.624000D-03
      1.100000D+02          -1.852800D-02
      3.557000D+01          -5.733900D-02
      1.254000D+01          -1.320760D-01
      4.644000D+00          -1.725100D-01
      1.293000D+00           1.518140D-01
      5.118000D-01           5.999440D-01
      1.787000D-01           3.874620D-01
S   1   1.00
      1.787000D-01           1.000000D+00
S   1   1.00
      0.0576000              1.0000000
S   1   1.00
      0.0288000              1.0000000
S   1   1.00
      0.0144000              1.0000000
S   1   1.00
      0.0072000              1.0000000
P   1   1.00
      5.550000D-01           1.000000D+00
P   5   1.00
      2.663000D+01           1.467000D-02
      5.948000D+00           9.176400D-02
      1.742000D+00           2.986830D-01
      5.550000D-01           4.984870D-01
      1.725000D-01           3.370230D-01
P   1   1.00
      1.725000D-01           1.000000D+00
P   1   1.00
      0.0491000              1.0000000
P   1   1.00
      0.0245500              1.0000000 
P   1   1.00
      0.0122750              1.0000000 
P   1   1.00
      0.0061375              1.0000000
D   1   1.00
      1.654000D+00           1.000000D+00
D   1   1.00
      4.690000D-01           1.000000D+00
D   1   1.00
      0.1510000              1.0000000
D   1   1.00
      0.0755000              1.0000000 
D   1   1.00
      0.0377500              1.0000000 
D   1   1.00
      0.0188750              1.0000000
F   1   1.00
      1.093000D+00           1.0000000
F   1   1.00
      0.3640000              1.0000000
****
$end

$complex_ccman
CS_HF 1
!PROJ_CAP 1
ETA_STEP 10
NSTEPS 1
CAP_TYPE     1
CAP_X   2760
CAP_Y   2760
CAP_Z   4880
CAP_ETA 137
$end

--------------------------------------------------------------
 ----------------------------------------------------------------
             Standard Nuclear Orientation (Angstroms)
    I     Atom           X                Y                Z
 ----------------------------------------------------------------
    1      N       0.0000000000     0.0000000000     0.5450000000
    2      N       0.0000000000     0.0000000000    -0.5450000000
 ----------------------------------------------------------------
 Molecular Point Group                 D2h   NOp =  8
 Largest Abelian Subgroup              D2h   NOp =  8
 Nuclear Repulsion Energy =          23.78870030 hartrees
 There are        7 alpha and        7 beta electrons
 Requested basis set is non-standard
 There are 46 shells and 146 basis functions
 Total memory of 8000 MB is distributed as follows: 
   MEM_STATIC is set to 192 MB
   QALLOC/CCMAN JOB total memory use is  7808 MB
 Warning: actual memory use might exceed 8000 MB

 Total QAlloc Memory Limit   8000 MB
 Mega-Array Size       188 MB
 MEM_STATIC part       192 MB


                       Distance Matrix (Angstroms)
             N (  1)
   N (  2)  1.090000

 A cutoff of  1.0D-14 yielded   1081 shell pairs
 There are     10977 function pairs (     14937 Cartesian)
 Smallest overlap matrix eigenvalue = 3.69E-08
 Linear dependence detected in AO basis
 Tighter screening thresholds may be required for diffuse basis sets
 Use S2THRESH > 14 and THRESH = 14 in case of SCF convergence issues
 Number of orthogonalized atomic orbitals = 144
 Maximum deviation from orthogonality = 3.040E-11

 Scale SEOQF with 1.000000e-02/1.000000e-02/1.000000e-02

 Standard Electronic Orientation quadrupole field applied
 ================ Generating on-the-fly SAD Guess ================
 Attempting to make child job directory: /scratch/sbkmdl/NCCT2S5P2D_0p545_CAP_EOMCCSD_State7.1406480182.saved//Frg1/
 Creating input file /scratch/sbkmdl/NCCT2S5P2D_0p545_CAP_EOMCCSD_State7.1406480182.saved/Frg1.input
 using default PutDataFrgm: nothing
 calling putenv with: QCSCRATCH=/scratch/sbkmdl/NCCT2S5P2D_0p545_CAP_EOMCCSD_State7.1406480182.saved/ 
 Spawning Job For Fragment 0
 Done Job For Fragment 0
 calling putenv with: QCSCRATCH=/scratch/sbkmdl 
 calling putenv with: QCTHREADS=16 
 Time for running child jobs:  CPU 0.01 s  wall 2.11 s
 ============= Method Specific SAD Guess Constructed =============
 Guess from on-the-fly superposition of atomic densities
 Warning: Energy on first SCF cycle will be non-variational
 An unrestricted Hartree-Fock SCF calculation will be
 performed using Pulay DIIS extrapolation
 SCF converges when DIIS error is below 1.0E-08
 using 16 threads for integral computing
 -------------------------------------------------------
 OpenMP Integral computing Module                
 Release: version 1.0, May 2013, Q-Chem Inc. Pittsburgh 
 -------------------------------------------------------
 ---------------------------------------
  Cycle       Energy         DIIS Error
 ---------------------------------------
    1    -110.4845225109      3.36E-02
    2    -108.7698574518      5.20E-03
    3    -108.9539808094      2.71E-03
    4    -108.9769982853      5.38E-04
    5    -108.9848656714      7.24E-05
    6    -108.9860028385      8.37E-06
    7    -108.9861935877      1.67E-06
    8    -108.9862305964      2.53E-07
    9    -108.9862368945      3.52E-08
   10    -108.9862379280      5.64E-09 Convergence criterion met
 ---------------------------------------
 <S^2> = 0.0000
 SCF time:  CPU 20.14 s  wall 2.25 s
 SCF   energy in the final basis set = -108.98623793
 Total energy in the final basis set = -108.98623793

 -----------------------------------------------------------------------
  General SCF calculation program by
  Eric Jon Sundstrom, Paul Horn, Yuezhi Mao, Dmitri Zuev, Alec White,
  David Stuck, Shaama M.S., Shane Yost, Joonho Lee, David Small,
  Daniel Levine, Susi Lehtola, Hugh Burton, Evgeny Epifanovsky,
  Bang C. Huynh
 -----------------------------------------------------------------------
         Start CS/CAP-UHF written by T-C Jagau
    | Alpha = 1.00000| Theta = 0.00000| Eta = 0.00137| Re_Eta = 0.00000|
Applied grid: 99000590
Largest error in numerical overlap matrix: 1.260971e-08 Loc: 1
Applied grid: 99000590
Largest error in numerical overlap matrix: 1.260970e-08 Loc: 1
 ---------------------------------------
  Cycle       Energy         DIIS error
 ---------------------------------------
Applied grid: 99000590
Largest error in numerical overlap matrix: 1.260970e-08 Loc: 1
Applied grid: 99000590
Largest error in numerical overlap matrix: 1.260971e-08 Loc: 1
    1    -108.9862381147      5.53e-06      
Applied grid: 99000590
Largest error in numerical overlap matrix: 1.260970e-08 Loc: 1
Applied grid: 99000590
Largest error in numerical overlap matrix: 1.260971e-08 Loc: 1
    2    -108.9862366871      8.37e-07      
Applied grid: 99000590
Largest error in numerical overlap matrix: 1.260971e-08 Loc: 1
Applied grid: 99000590
Largest error in numerical overlap matrix: 1.260971e-08 Loc: 1
    3    -108.9862366635      2.09e-07      
Applied grid: 99000590
Largest error in numerical overlap matrix: 1.260971e-08 Loc: 1
Applied grid: 99000590
Largest error in numerical overlap matrix: 1.260970e-08 Loc: 1
    4    -108.9862366640      8.80e-08      
Applied grid: 99000590
Largest error in numerical overlap matrix: 1.260971e-08 Loc: 1
Applied grid: 99000590
Largest error in numerical overlap matrix: 1.260971e-08 Loc: 1
    5    -108.9862366645      2.85e-08      
beta C orbitals violate orthonormality!
Max deviation = 6.64e-07
Complex HF energy: (-108.9862366644 , -0.0000865558)
Complex HF energy, corrected for CAP: (-108.9862393575 , -0.0000005931)
<S^2> =      (0.0000,0.0000)
    6    -108.9862366644      3.05e-09      Convergence criterion met
 ---------------------------------------
Timing the normal SCF step: 5.00s (wall), 43.02s (cpu)


 ------------------------------------------------------------------------------

   CCMAN2: suite of methods based on coupled cluster
           and equation of motion theories.

   Components:
   * libvmm-1.3-trunk
     by Evgeny Epifanovsky, Ilya Kaliman.
   * libtensor-2.5-trunk
     by Evgeny Epifanovsky, Michael Wormit, Dmitry Zuev, Sam Manzer, 
        Ilya Kaliman.
   * libcc-2.5-trunk
     by Evgeny Epifanovsky, Arik Landau, Tomasz Kus, Kirill Khistyaev, 
        Dmitry Zuev, Prashant Manohar, Xintian Feng, Anna Krylov, 
        Matthew Goldey, Alec White, Thomas Jagau, Kaushik Nanda, 
        Anastasia Gunina, Alexander Kunitsa, Joonho Lee.

   CCMAN original authors:
   Anna I. Krylov, C. David Sherrill, Steven R. Gwaltney,
   Edward F. C. Byrd (2000)
   Sergey V. Levchenko, Lyudmila V. Slipchenko, Tao Wang,
   Ana-Maria C. Cristian (2003)
   Piotr A. Pieniazek, C. Melania Oana, Evgeny Epifanovsky (2007)
   Prashant Manohar (2009)

 ------------------------------------------------------------------------------


 Allocating and initializing 7808MB of RAM...
 Calculation will run on 16 cores.


 Alpha MOs, Unrestricted
 -- Occupied --                  
-15.682 -15.679  -1.478  -0.777  -0.635  -0.618  -0.618
 -0.000  -0.000  -0.000  -0.000  -0.000  -0.000  -0.000
  1 Ag    1 B1u   2 Ag    2 B1u   3 Ag    1 B2u   1 B3u                        
 -- Virtual --                   
  0.043   0.061   0.073   0.073   0.063   0.076   0.080   0.080
 -0.036  -0.041  -0.037  -0.037  -0.069  -0.060  -0.054  -0.054
  4 Ag    3 B1u   2 B2u   2 B3u   1 B1g   5 Ag    1 B3g   1 B2g                
  0.064   0.077   0.077   0.079   0.096   0.080   0.080   0.093
 -0.081  -0.069  -0.069  -0.073  -0.060  -0.081  -0.084  -0.071
  6 Ag    3 B2u   3 B3u   1 Au    7 Ag    4 B1u   5 B1u   6 B1u                
  0.064   0.064   0.136   0.136   0.137   0.147   0.147   0.148
 -0.100  -0.100  -0.041  -0.041  -0.046  -0.027  -0.027  -0.031
  4 B2u   4 B3u   2 B3g   2 B2g   8 Ag    3 B3g   3 B2g   2 B1g                
  0.147   0.068   0.186   0.188   0.187   0.193   0.193   0.071
 -0.036  -0.173  -0.032  -0.029  -0.034  -0.027  -0.027  -0.185
  9 Ag   10 Ag    7 B1u   2 Au    8 B1u   5 B2u   5 B3u   4 B3g                
  0.071   0.202   0.217   0.217   0.222   0.067   0.244   0.244
 -0.185  -0.031  -0.026  -0.026  -0.044  -0.227  -0.028  -0.028
  4 B2g  11 Ag    5 B3g   5 B2g   9 B1u  10 B1u   6 B2u   6 B3u                
  0.045   0.275   0.322   0.325   0.325   0.346   0.036   0.036
 -0.247  -0.030  -0.023  -0.029  -0.029  -0.018  -0.345  -0.345
 12 Ag   13 Ag   14 Ag    6 B3g   6 B2g  15 Ag    7 B2u   7 B3u                
  0.346   0.414   0.426   0.426   0.037   0.447   0.447   0.039
 -0.015  -0.015  -0.015  -0.012  -0.445  -0.011  -0.011  -0.452
  3 B1g  11 B1u  12 B1u   3 Au   16 Ag    8 B2u   8 B3u   7 B3g                
  0.039   0.456   0.527   0.043   0.531   0.531   0.659   0.713
 -0.452  -0.027  -0.015  -0.526  -0.015  -0.015  -0.013  -0.008
  7 B2g  13 B1u  17 Ag   14 B1u   8 B3g   8 B2g  18 Ag   19 Ag                 
  0.714   0.725   0.725   0.780   0.879   0.879   0.906   0.910
 -0.007  -0.008  -0.008  -0.005  -0.006  -0.005  -0.012  -0.006
  4 B1g   9 B2u   9 B3u  15 B1u  16 B1u   4 Au   17 B1u   9 B3g                
  0.910   1.002   1.002   1.042   1.099   1.099   1.254   1.372
 -0.006  -0.004  -0.004  -0.003  -0.003  -0.003  -0.004  -0.000
  9 B2g  10 B2u  10 B3u  20 Ag   10 B3g  10 B2g  18 B1u  11 B3u                
  1.372   1.475   1.578   1.578   1.657   1.657   1.722   1.722
 -0.000  -0.004  -0.002  -0.002  -0.002  -0.002  -0.000  -0.000
 11 B2u  21 Ag   22 Ag    5 B1g  12 B2u  12 B3u  11 B3g  11 B2g                
  1.750   1.750   1.804   1.811   1.811   1.836   1.961   1.961
 -0.001  -0.001  -0.002  -0.002  -0.002  -0.004  -0.002  -0.002
 23 Ag    6 B1g  24 Ag   19 B1u   5 Au   20 B1u  12 B3g  12 B2g                
  2.082   2.201   2.201   2.332   2.332   2.475   2.475   2.820
 -0.001  -0.000  -0.000  -0.000  -0.000  -0.001  -0.001  -0.001
 21 B1u  13 B2u  13 B3u  22 B1u   6 Au   13 B3g  13 B2g  23 B1u                
  2.987   3.464   3.464   4.069   4.452   4.452   4.463   4.463
 -0.002  -0.001  -0.001  -0.000  -0.001  -0.001  -0.000  -0.000
 25 Ag   14 B2u  14 B3u  26 Ag   14 B3g  14 B2g  27 Ag    7 B1g                
  4.562   4.562   4.657   4.657   4.710   4.759   5.049   5.049
 -0.000  -0.000  -0.000  -0.000  -0.001  -0.001  -0.000  -0.000
 15 B2u  15 B3u  16 B2u  16 B3u  24 B1u  28 Ag   15 B2g  15 B3g                
  5.218   5.218   5.269   5.269   5.311   5.440   5.440   5.699
 -0.000  -0.000  -0.000  -0.000  -0.000  -0.000  -0.000  -0.000
 29 Ag    8 B1g  25 B1u   7 Au   26 B1u  16 B3g  16 B2g  17 B2u                
  5.699   5.791   5.791   6.804   6.821   6.957   6.957  12.393
 -0.000  -0.000  -0.000  -0.000  -0.000  -0.000  -0.000  -0.004
 17 B3u  27 B1u   8 Au   30 Ag   28 B1u  17 B3g  17 B2g  31 Ag                 
 20.052
 -0.001
 29 B1u                                                                        

 Beta MOs, Unrestricted
 -- Occupied --                  
-15.682 -15.679  -1.478  -0.777  -0.635  -0.618  -0.618
 -0.000  -0.000  -0.000  -0.000  -0.000  -0.000  -0.000
  1 Ag    1 B1u   2 Ag    2 B1u   3 Ag    1 B2u   1 B3u                        
 -- Virtual --                   
  0.043   0.061   0.073   0.073   0.063   0.076   0.080   0.080
 -0.036  -0.041  -0.037  -0.037  -0.069  -0.060  -0.054  -0.054
  4 Ag    3 B1u   2 B2u   2 B3u   1 B1g   5 Ag    1 B3g   1 B2g                
  0.064   0.077   0.077   0.079   0.096   0.080   0.080   0.093
 -0.081  -0.069  -0.069  -0.073  -0.060  -0.081  -0.084  -0.071
  6 Ag    3 B2u   3 B3u   1 Au    7 Ag    4 B1u   5 B1u   6 B1u                
  0.064   0.064   0.136   0.136   0.137   0.147   0.147   0.148
 -0.100  -0.100  -0.041  -0.041  -0.046  -0.027  -0.027  -0.031
  4 B2u   4 B3u   2 B3g   2 B2g   8 Ag    3 B3g   3 B2g   2 B1g                
  0.147   0.068   0.186   0.188   0.187   0.193   0.193   0.071
 -0.036  -0.173  -0.032  -0.029  -0.034  -0.027  -0.027  -0.185
  9 Ag   10 Ag    7 B1u   2 Au    8 B1u   5 B2u   5 B3u   4 B3g                
  0.071   0.202   0.217   0.217   0.222   0.067   0.244   0.244
 -0.185  -0.031  -0.026  -0.026  -0.044  -0.227  -0.028  -0.028
  4 B2g  11 Ag    5 B3g   5 B2g   9 B1u  10 B1u   6 B2u   6 B3u                
  0.045   0.275   0.322   0.325   0.325   0.346   0.036   0.036
 -0.247  -0.030  -0.023  -0.029  -0.029  -0.018  -0.345  -0.345
 12 Ag   13 Ag   14 Ag    6 B3g   6 B2g  15 Ag    7 B2u   7 B3u                
  0.346   0.414   0.426   0.426   0.037   0.447   0.447   0.039
 -0.015  -0.015  -0.015  -0.012  -0.445  -0.011  -0.011  -0.452
  3 B1g  11 B1u  12 B1u   3 Au   16 Ag    8 B2u   8 B3u   7 B3g                
  0.039   0.456   0.527   0.043   0.531   0.531   0.659   0.713
 -0.452  -0.027  -0.015  -0.526  -0.015  -0.015  -0.013  -0.008
  7 B2g  13 B1u  17 Ag   14 B1u   8 B3g   8 B2g  18 Ag   19 Ag                 
  0.714   0.725   0.725   0.780   0.879   0.879   0.906   0.910
 -0.007  -0.008  -0.008  -0.005  -0.006  -0.005  -0.012  -0.006
  4 B1g   9 B2u   9 B3u  15 B1u  16 B1u   4 Au   17 B1u   9 B3g                
  0.910   1.002   1.002   1.042   1.099   1.099   1.254   1.372
 -0.006  -0.004  -0.004  -0.003  -0.003  -0.003  -0.004  -0.000
  9 B2g  10 B2u  10 B3u  20 Ag   10 B3g  10 B2g  18 B1u  11 B2u                
  1.372   1.475   1.578   1.578   1.657   1.657   1.722   1.722
 -0.000  -0.004  -0.002  -0.002  -0.002  -0.002  -0.000  -0.000
 11 B3u  21 Ag   22 Ag    5 B1g  12 B2u  12 B3u  11 B3g  11 B2g                
  1.750   1.750   1.804   1.811   1.811   1.836   1.961   1.961
 -0.001  -0.001  -0.002  -0.002  -0.002  -0.004  -0.002  -0.002
 23 Ag    6 B1g  24 Ag   19 B1u   5 Au   20 B1u  12 B3g  12 B2g                
  2.082   2.201   2.201   2.332   2.332   2.475   2.475   2.820
 -0.001  -0.000  -0.000  -0.000  -0.000  -0.001  -0.001  -0.001
 21 B1u  13 B2u  13 B3u  22 B1u   6 Au   13 B3g  13 B2g  23 B1u                
  2.987   3.464   3.464   4.069   4.452   4.452   4.463   4.463
 -0.002  -0.001  -0.001  -0.000  -0.001  -0.001  -0.000  -0.000
 25 Ag   14 B2u  14 B3u  26 Ag   14 B3g  14 B2g  27 Ag    7 B1g                
  4.562   4.562   4.657   4.657   4.710   4.759   5.049   5.049
 -0.000  -0.000  -0.000  -0.000  -0.001  -0.001  -0.000  -0.000
 15 B2u  15 B3u  16 B2u  16 B3u  24 B1u  28 Ag   15 B2g  15 B3g                
  5.218   5.218   5.269   5.269   5.311   5.440   5.440   5.699
 -0.000  -0.000  -0.000  -0.000  -0.000  -0.000  -0.000  -0.000
 29 Ag    8 B1g  25 B1u   7 Au   26 B1u  16 B3g  16 B2g  17 B2u                
  5.699   5.791   5.791   6.804   6.821   6.957   6.957  12.393
 -0.000  -0.000  -0.000  -0.000  -0.000  -0.000  -0.000  -0.004
 17 B3u  27 B1u   8 Au   30 Ag   28 B1u  17 B3g  17 B2g  31 Ag                 
 20.052
 -0.001
 29 B1u                                                                        

 Occupation and symmetry of molecular orbitals

 Point group: D2h (8 irreducible representations).

                           Ag   B1g  B2g  B3g  Au   B1u  B2u  B3u   All 
 ------------------------------------------------------------------------
 All molecular orbitals:
  - Alpha                  31   8    17   17   8    29   17   17    144 
  - Beta                   31   8    17   17   8    29   17   17    144 
 ------------------------------------------------------------------------
 Alpha orbitals:
  - Restricted occupied    0    0    0    0    0    0    0    0     0   
  - Active occupied        3    0    0    0    0    2    1    1     7   
  - Active virtual         28   8    17   17   8    27   16   16    137 
  - Restricted virtual     0    0    0    0    0    0    0    0     0   
 ------------------------------------------------------------------------
 Beta orbitals:
  - Restricted occupied    0    0    0    0    0    0    0    0     0   
  - Active occupied        3    0    0    0    0    2    1    1     7   
  - Active virtual         28   8    17   17   8    27   16   16    137 
  - Restricted virtual     0    0    0    0    0    0    0    0     0   
 ------------------------------------------------------------------------

 Import integrals:   CPU 0.00 s  wall 0.00 s

 Import complex integrals:   CPU 193.50 s  wall 15.26 s

 CS-MP2 amplitudes:   CPU 35.78 s  wall 7.57 s

                      cs-CCSD T amplitudes will be solved using DIIS.
           Start     Size      MaxIter   EConv     TConv     Alpha     Theta     Eta       Re_Eta    
           3         7         100       1.00e-07  1.00e-05  1.00e+00  0.00e+00  1.37e-03  0.00e+00  
 ----------------------------------------------------------------------------------------------------
                             Energy (a.u.)             Ediff      Tdiff       Comment
 ----------------------------------------------------------------------------------------------------
                      (-109.39548772 , -0.00009053)                           
     1                (-109.37799114 , -0.00008754)   1.75e-02   9.54e-01     
     2                (-109.39357788 , -0.00008914)   1.56e-02   1.26e-01     
     3                (-109.39197957 , -0.00008864)   1.60e-03   6.24e-02     
     4                (-109.39346947 , -0.00008907)   1.49e-03   1.38e-02     Switched to DIIS steps.
     5                (-109.39377311 , -0.00008908)   3.04e-04   1.54e-02     
     6                (-109.39376426 , -0.00008921)   8.85e-06   2.13e-03     
     7                (-109.39376084 , -0.00008916)   3.42e-06   3.24e-04     
     8                (-109.39376210 , -0.00008919)   1.26e-06   1.03e-04     
     9                (-109.39376196 , -0.00008918)   1.33e-07   1.63e-05     
    10                (-109.39376194 , -0.00008918)   2.67e-08   4.58e-06     
 ----------------------------------------------------------------------------------------------------
                      (-109.39376194 , -0.00008918)                           CCSD T converged.

 SCF energy                 =             (-108.98623666 ,-0.00008656)
 MP2 energy                 =             (-109.39548772 , -0.00009053)
 CCSD correlation energy    =             (-0.40752527 , -0.00000263)
 CCSD total energy          =             (-109.39376194 , -0.00008918)

 CCSD (T1|T1) =  (0.0034 , 0.0000)  (T2|T2) =  (0.1214 , 0.0000). 

 Leading amplitudes (real):

 Amplitude    Orbitals with energies
  0.0160       1 (B2u) B                 ->    10 (B2u) B                  
              -0.6176                          1.0021                      
  0.0160       1 (B3u) B                 ->    10 (B3u) B                  
              -0.6176                          1.0021                      
  0.0160       1 (B2u) A                 ->    10 (B2u) A                  
              -0.6176                          1.0021                      
  0.0160       1 (B3u) A                 ->    10 (B3u) A                  
              -0.6176                          1.0021                      

 Amplitude    Orbitals with energies
 -0.1307       1 (B3u) A     1 (B3u) B   ->    5 (B2g) A     5 (B2g) B    
              -0.6176       -0.6176            0.1468        0.1468       
  0.1307       1 (B3u) A     1 (B3u) B   ->    5 (B2g) B     5 (B2g) A    
              -0.6176       -0.6176            0.1468        0.1468       
  0.1307       1 (B3u) B     1 (B3u) A   ->    5 (B2g) A     5 (B2g) B    
              -0.6176       -0.6176            0.1468        0.1468       
 -0.1307       1 (B3u) B     1 (B3u) A   ->    5 (B2g) B     5 (B2g) A    
              -0.6176       -0.6176            0.1468        0.1468       
 -0.1307       1 (B2u) A     1 (B2u) B   ->    5 (B3g) A     5 (B3g) B    
              -0.6176       -0.6176            0.1468        0.1468       
  0.1307       1 (B2u) A     1 (B2u) B   ->    5 (B3g) B     5 (B3g) A    
              -0.6176       -0.6176            0.1468        0.1468       
  0.1307       1 (B2u) B     1 (B2u) A   ->    5 (B3g) A     5 (B3g) B    
              -0.6176       -0.6176            0.1468        0.1468       
 -0.1307       1 (B2u) B     1 (B2u) A   ->    5 (B3g) B     5 (B3g) A    
              -0.6176       -0.6176            0.1468        0.1468       

 Leading amplitudes (imaginary):

 Amplitude    Orbitals with energies
 -0.0034       3 (Ag) A                  ->    5 (Ag) A                   
              -0.0001                         -0.0363                     
 -0.0034       3 (Ag) B                  ->    5 (Ag) B                   
              -0.0001                         -0.0363                     
  0.0025       3 (Ag) A                  ->    9 (Ag) A                   
              -0.0001                         -0.0602                     
  0.0025       3 (Ag) B                  ->    9 (Ag) B                   
              -0.0001                         -0.0602                     

 Amplitude    Orbitals with energies
 -0.0886       1 (B3u) A     1 (B3u) B   ->    5 (B2g) A     4 (B2g) B    
              -0.0001       -0.0001           -0.0268       -0.0414       
  0.0886       1 (B3u) A     1 (B3u) B   ->    4 (B2g) B     5 (B2g) A    
              -0.0001       -0.0001           -0.0414       -0.0268       
  0.0886       1 (B3u) B     1 (B3u) A   ->    5 (B2g) A     4 (B2g) B    
              -0.0001       -0.0001           -0.0268       -0.0414       
 -0.0886       1 (B3u) B     1 (B3u) A   ->    4 (B2g) B     5 (B2g) A    
              -0.0001       -0.0001           -0.0414       -0.0268       
 -0.0886       1 (B2u) A     1 (B2u) B   ->    5 (B3g) A     4 (B3g) B    
              -0.0001       -0.0001           -0.0268       -0.0414       
  0.0886       1 (B2u) A     1 (B2u) B   ->    4 (B3g) B     5 (B3g) A    
              -0.0001       -0.0001           -0.0414       -0.0268       
  0.0886       1 (B2u) B     1 (B2u) A   ->    5 (B3g) A     4 (B3g) B    
              -0.0001       -0.0001           -0.0268       -0.0414       
 -0.0886       1 (B2u) B     1 (B2u) A   ->    4 (B3g) B     5 (B3g) A    
              -0.0001       -0.0001           -0.0414       -0.0268       

 CS-CCSD calculation:   CPU 1038.75 s  wall 170.31 s

 Full complex-valued CS/CAP EOMEE-CCSD calculation:   CPU 11.19 s  wall 2.12 s
           Solving for CS/CAP-EOMEA-CCSD B2g transitions.

           Complex-valued EOMEA-CCSD right amplitudes will be solved.
           Alpha=1.00e+00    Theta=0.00e+00    Eta=1.37e-03    Re_Eta=0.00e+00 

        Amplitudes will be solved using standard  algorithm.
     Hard-coded thresholds: 
     LinDepThresh=1.00e-15  NormThresh=1.00e-06  ReorthogonThresh=1.00e-02

      Roots     MaxVec    MaxIter   Precond   Conv      Shift    
      7         120       60        1         1.00e-06  0.00e+00  
 ------------------------------------------------------------------------------
      Iter ConvRoots NVecs ResNorm^2 Current eigenvalues (eV)
 ------------------------------------------------------------------------------
      0    0      7     4.34e-02   (2.1592,-1.4837)   (3.5682,-1.4040)   (5.0161,-0.7016)   (1.9422,-5.0420)   (6.3159,-0.5527)   (9.1514,-0.7257)   (1.0614,-12.2970)   
      1    0      14    5.51e-02   (2.1802,-1.4564)   (3.5663,-1.1362)   (4.1538,-0.7591)   (1.9418,-5.0415)   (5.8927,-0.6964)   (8.8089,-0.7882)   (1.0612,-12.2970)   
      2    2      21    1.53e-03   (2.2151,-1.4830)   (2.7006,-0.2953)   (3.8649,-1.4231)   (1.9416,-5.0414)*  (5.6972,-0.7698)   (8.5094,-0.8148)   (1.0610,-12.2971)*  
      3    2      26    1.00e-04   (2.6173,-0.2739)   (2.2150,-1.4878)   (3.8510,-1.4384)   (1.9416,-5.0414)*  (5.6843,-0.7729)   (8.4752,-0.8132)   (1.0610,-12.2971)*  
      4    2      31    1.83e-05   (2.6055,-0.2708)   (2.2149,-1.4884)   (3.8496,-1.4403)   (1.9416,-5.0414)*  (5.6818,-0.7738)   (8.4660,-0.8136)   (1.0610,-12.2971)*  
      5    4      36    3.00e-06   (2.6047,-0.2706)   (2.2149,-1.4885)*  (3.8496,-1.4405)*  (1.9416,-5.0414)*  (5.6816,-0.7740)   (8.4646,-0.8135)   (1.0610,-12.2971)*  
      6    6      39    1.58e-06   (2.6047,-0.2708)*  (2.2149,-1.4885)*  (3.8496,-1.4404)*  (1.9416,-5.0414)*  (5.6816,-0.7739)*  (8.4643,-0.8132)   (1.0610,-12.2971)*  
      7    6      40    4.38e-06   (2.6048,-0.2706)*  (2.2149,-1.4885)*  (3.8496,-1.4405)*  (1.9416,-5.0414)*  (5.6815,-0.7739)*  (8.4635,-0.8129)   (1.0610,-12.2971)*  
      8    6      41    1.12e-03   (2.6048,-0.2707)*  (2.2149,-1.4885)*  (3.8496,-1.4405)*  (1.9416,-5.0414)*  (5.6816,-0.7740)*  (8.4639,-0.8135)*  (12.0306,-0.5572)   
      9    6      42    6.79e-04   (2.6048,-0.2707)*  (2.2149,-1.4885)*  (3.8496,-1.4405)*  (1.9416,-5.0414)*  (5.6816,-0.7739)*  (8.4639,-0.8134)*  (11.9667,-0.9421)   
      10   6      43    1.61e-04   (2.6048,-0.2708)*  (2.2149,-1.4885)*  (3.8496,-1.4405)*  (1.9416,-5.0414)*  (5.6816,-0.7739)*  (8.4639,-0.8135)*  (12.1188,-1.0603)   
      11   6      44    7.73e-02   (1.0465,0.2756)   (2.6047,-0.2708)*  (2.2149,-1.4885)*  (3.8496,-1.4405)*  (1.9416,-5.0414)*  (5.6816,-0.7740)*  (8.4639,-0.8135)*  
      12   6      45    1.00e-05   (2.6048,-0.2708)*  (2.2149,-1.4885)*  (3.8496,-1.4405)*  (1.9416,-5.0414)*  (5.6816,-0.7739)*  (8.4639,-0.8135)*  (11.9955,-1.1318)   
      13   5      46    2.86e-03   (2.6048,-0.2708)*  (2.2149,-1.4885)*  (3.8496,-1.4405)*  (1.9416,-5.0414)*  (5.6816,-0.7739)*  (8.4641,-0.8135)   (9.4946,-0.4366)   
      14   6      48    1.10e-05   (2.6048,-0.2708)*  (2.2149,-1.4885)*  (3.8496,-1.4405)*  (1.9416,-5.0414)*  (5.6816,-0.7740)*  (8.4639,-0.8135)*  (11.9998,-1.1894)   
      15   6      49    2.34e-03   (2.6048,-0.2707)*  (2.2149,-1.4885)*  (3.8496,-1.4405)*  (1.9416,-5.0414)*  (5.6816,-0.7740)*  (8.4639,-0.8135)*  (10.6612,-4.0619)   
      16   6      50    1.36e-05   (2.6048,-0.2707)*  (2.2149,-1.4885)*  (3.8496,-1.4405)*  (1.9416,-5.0414)*  (5.6816,-0.7740)*  (8.4639,-0.8135)*  (12.0110,-1.1961)   
      17   6      51    1.64e-04   (2.6048,-0.2707)*  (2.2149,-1.4885)*  (3.8496,-1.4405)*  (1.9416,-5.0414)*  (5.6816,-0.7740)*  (8.4639,-0.8135)*  (11.3770,-3.6527)   
      18   6      52    4.00e-05   (2.6048,-0.2707)*  (2.2149,-1.4885)*  (3.8496,-1.4405)*  (1.9416,-5.0414)*  (5.6816,-0.7740)*  (8.4639,-0.8135)*  (11.3935,-3.3570)   
      19   6      53    1.22e-04   (2.6048,-0.2708)*  (2.2149,-1.4885)*  (3.8496,-1.4405)*  (1.9416,-5.0414)*  (5.6816,-0.7740)*  (8.4639,-0.8135)*  (11.1623,-2.4721)   
      20   6      54    1.07e-04   (2.6048,-0.2707)*  (2.2149,-1.4885)*  (3.8496,-1.4405)*  (1.9416,-5.0414)*  (5.6816,-0.7739)*  (8.4639,-0.8135)*  (11.1800,-2.5042)   
      21   6      55    3.57e-04   (2.6048,-0.2707)*  (2.2149,-1.4885)*  (3.8496,-1.4405)*  (1.9416,-5.0414)*  (5.6816,-0.7740)*  (8.4639,-0.8135)*  (11.4886,-2.8324)   
      22   6      56    1.59e-05   (2.6048,-0.2708)*  (2.2149,-1.4885)*  (3.8496,-1.4405)*  (1.9416,-5.0414)*  (5.6816,-0.7740)*  (8.4639,-0.8135)*  (11.5703,-2.6828)   
      23   6      57    1.79e-05   (2.6048,-0.2707)*  (2.2149,-1.4885)*  (3.8496,-1.4405)*  (1.9416,-5.0414)*  (5.6816,-0.7740)*  (8.4639,-0.8135)*  (11.8758,-1.0586)   
      24   6      58    8.15e-06   (2.6048,-0.2708)*  (2.2149,-1.4885)*  (3.8496,-1.4405)*  (1.9416,-5.0414)*  (5.6816,-0.7739)*  (8.4639,-0.8135)*  (11.8874,-1.0483)   
      25   6      59    4.63e-05   (2.6048,-0.2708)*  (2.2149,-1.4885)*  (3.8496,-1.4405)*  (1.9416,-5.0414)*  (5.6816,-0.7739)*  (8.4639,-0.8135)*  (11.8924,-1.0374)   
      26   6      60    2.65e-05   (2.6048,-0.2708)*  (2.2149,-1.4885)*  (3.8496,-1.4405)*  (1.9416,-5.0414)*  (5.6816,-0.7739)*  (8.4639,-0.8135)*  (11.8917,-1.0366)   
      27   6      61    8.28e-06   (2.6048,-0.2708)*  (2.2149,-1.4885)*  (3.8496,-1.4405)*  (1.9416,-5.0414)*  (5.6816,-0.7739)*  (8.4639,-0.8135)*  (11.8862,-1.0260)   
      28   6      62    2.00e-05   (2.6048,-0.2708)*  (2.2149,-1.4885)*  (3.8496,-1.4405)*  (1.9416,-5.0414)*  (5.6816,-0.7739)*  (8.4639,-0.8135)*  (11.8945,-1.0267)   
      29   6      63    1.68e-05   (2.6048,-0.2708)*  (2.2149,-1.4885)*  (3.8496,-1.4405)*  (1.9416,-5.0414)*  (5.6816,-0.7739)*  (8.4639,-0.8135)*  (11.8902,-1.0153)   
      30   6      64    5.08e-06   (2.6048,-0.2708)*  (2.2149,-1.4885)*  (3.8496,-1.4405)*  (1.9416,-5.0414)*  (5.6816,-0.7740)*  (8.4639,-0.8135)*  (11.8867,-1.0171)   
      31   6      65    7.11e-06   (2.6048,-0.2708)*  (2.2149,-1.4885)*  (3.8496,-1.4405)*  (1.9416,-5.0414)*  (5.6816,-0.7740)*  (8.4639,-0.8135)*  (11.8865,-1.0179)   
      32   6      66    3.66e-06   (2.6048,-0.2708)*  (2.2149,-1.4885)*  (3.8496,-1.4405)*  (1.9416,-5.0414)*  (5.6816,-0.7740)*  (8.4639,-0.8135)*  (11.8855,-1.0182)   
      33   6      67    5.09e-05   (2.6048,-0.2708)*  (2.2149,-1.4885)*  (3.8496,-1.4405)*  (1.9416,-5.0414)*  (5.6816,-0.7740)*  (8.4639,-0.8135)*  (11.8752,-1.0161)   
      34   6      68    8.42e-06   (2.6048,-0.2707)*  (2.2149,-1.4885)*  (3.8496,-1.4405)*  (1.9416,-5.0414)*  (5.6816,-0.7740)*  (8.4639,-0.8135)*  (11.8822,-1.0251)   
      35   6      69    3.81e-04   (2.6048,-0.2708)*  (2.2149,-1.4885)*  (3.8496,-1.4405)*  (1.9416,-5.0414)*  (5.6816,-0.7740)*  (8.4639,-0.8135)*  (11.7374,-1.7688)   
      36   6      70    1.12e-06   (2.6048,-0.2708)*  (2.2149,-1.4885)*  (3.8496,-1.4405)*  (1.9416,-5.0414)*  (5.6816,-0.7739)*  (8.4639,-0.8135)*  (11.8851,-1.0231)   
      37   6      71    3.78e-05   (2.6048,-0.2708)*  (2.2149,-1.4885)*  (3.8496,-1.4405)*  (1.9416,-5.0414)*  (5.6816,-0.7740)*  (8.4639,-0.8135)*  (11.8857,-1.0250)   
      38   7      72    1.89e-07   (2.6048,-0.2708)*  (2.2149,-1.4885)*  (3.8496,-1.4405)*  (1.9416,-5.0414)*  (5.6816,-0.7740)*  (8.4639,-0.8135)*  (11.8849,-1.0236)*  

     Davidson procedure converged
 Total energies for CS/CAP-EOM-EA states (alpha = 1.00e+00 | theta = 0.00e+00| eta = 1.37e-03):
 State         Re(E)            Im(E)
   1      -109.29803804      -0.01003970
   2      -109.31236578      -0.05478950
   3      -109.25229158      -0.05302582
   4      -109.32240767      -0.18535559
   5      -109.18496765      -0.02853134
   6      -109.08271785      -0.02998381
   7      -108.95699818      -0.03770602

 Attachment energies for CS/CAP-EOM-EA states (alpha = 1.00e+00 | theta = 0.00e+00| eta = 1.37e-03):
 State         Re(E)            Im(E)
   1      2.60477972      -0.27076740
   2      2.21490198      -1.48847120
   3      3.84960417      -1.44047903
   4      1.94164838      -5.04135537
   5      5.68158147      -0.77395043
   6      8.46394009      -0.81347401
   7      11.88494630      -1.02360621

 CS/CAP-EOMEA-CCSD transition 1/B2g
 Total energy = (-109.29803804 , -0.01003970) a.u.  Excitation energy =  (2.6048 , -0.2708) eV.
 (R1|R1) =  (0.9440 , 0.0152)
 (R2|R2) =  (0.0560 , -0.0152)
 Res^2 = 1.74e-08

 Real part of amplitudes
 Amplitude    Transitions between orbitals
  0.9586       infty       ->    5 (B2g) B                  
 -0.5539       infty       ->    4 (B2g) B                  
  0.1530       infty       ->    3 (B2g) B                  
 -0.1411       infty       ->    6 (B2g) B                  

              Summary of significant orbitals:

               Number  Type             Irrep      Energy
               15      Vir  Beta        3 (B2g)      0.0803
               27      Vir  Beta        4 (B2g)      0.1360
               30      Vir  Beta        5 (B2g)      0.1468
               43      Vir  Beta        6 (B2g)      0.2166

 Imaginary part of amplitudes
 Amplitude    Transitions between orbitals
  0.4982       infty       ->    4 (B2g) B                  
  0.2864       infty       ->    5 (B2g) B                  
  0.0366       infty       ->    3 (B2g) B                  
 -0.0281       infty       ->    6 (B2g) B                  

              Summary of significant orbitals:

               Number  Type             Irrep      Energy
               15      Vir  Beta        3 (B2g)     -0.0544
               27      Vir  Beta        4 (B2g)     -0.0414
               30      Vir  Beta        5 (B2g)     -0.0268
               43      Vir  Beta        6 (B2g)     -0.0261


 CS/CAP-EOMEA-CCSD transition 2/B2g
 Total energy = (-109.31236578 , -0.05478950) a.u.  Excitation energy =  (2.2149 , -1.4885) eV.
 (R1|R1) =  (1.0002 , -0.0026)
 (R2|R2) =  (-0.0002 , 0.0026)
 Res^2 = 2.05e-09

 Real part of amplitudes
 Amplitude    Transitions between orbitals
  0.9895       infty       ->    3 (B2g) B                  
 -0.1492       infty       ->    5 (B2g) B                  
  0.1170       infty       ->    4 (B2g) B                  
  0.0255       infty       ->    6 (B2g) B                  

              Summary of significant orbitals:

               Number  Type             Irrep      Energy
               15      Vir  Beta        3 (B2g)      0.0803
               27      Vir  Beta        4 (B2g)      0.1360
               30      Vir  Beta        5 (B2g)      0.1468
               43      Vir  Beta        6 (B2g)      0.2166

 Imaginary part of amplitudes
 Amplitude    Transitions between orbitals
 -0.0908       infty       ->    5 (B2g) B                  
 -0.0840       infty       ->    4 (B2g) B                  
  0.0175       infty       ->    6 (B2g) B                  
 -0.0076       infty       ->    7 (B2g) B                  

              Summary of significant orbitals:

               Number  Type             Irrep      Energy
               27      Vir  Beta        4 (B2g)     -0.0414
               30      Vir  Beta        5 (B2g)     -0.0268
               43      Vir  Beta        6 (B2g)     -0.0261
               52      Vir  Beta        7 (B2g)     -0.0293


 CS/CAP-EOMEA-CCSD transition 3/B2g
 Total energy = (-109.25229158 , -0.05302582) a.u.  Excitation energy =  (3.8496 , -1.4405) eV.
 (R1|R1) =  (0.9939 , -0.0083)
 (R2|R2) =  (0.0061 , 0.0083)
 Res^2 = 2.04e-09

 Real part of amplitudes
 Amplitude    Transitions between orbitals
  1.0346       infty       ->    4 (B2g) B                  
  0.5498       infty       ->    5 (B2g) B                  
 -0.1020       infty       ->    6 (B2g) B                  
  0.0474       infty       ->    7 (B2g) B                  

              Summary of significant orbitals:

               Number  Type             Irrep      Energy
               27      Vir  Beta        4 (B2g)      0.1360
               30      Vir  Beta        5 (B2g)      0.1468
               43      Vir  Beta        6 (B2g)      0.2166
               52      Vir  Beta        7 (B2g)      0.3247

 Imaginary part of amplitudes
 Amplitude    Transitions between orbitals
 -0.5548       infty       ->    5 (B2g) B                  
  0.2872       infty       ->    4 (B2g) B                  
 -0.0309       infty       ->    6 (B2g) B                  
  0.0270       infty       ->    3 (B2g) B                  

              Summary of significant orbitals:

               Number  Type             Irrep      Energy
               15      Vir  Beta        3 (B2g)     -0.0544
               27      Vir  Beta        4 (B2g)     -0.0414
               30      Vir  Beta        5 (B2g)     -0.0268
               43      Vir  Beta        6 (B2g)     -0.0261


 CS/CAP-EOMEA-CCSD transition 4/B2g
 Total energy = (-109.32240767 , -0.18535559) a.u.  Excitation energy =  (1.9416 , -5.0414) eV.
 (R1|R1) =  (1.0000 , 0.0000)
 (R2|R2) =  (0.0000 , -0.0000)
 Res^2 = 8.42e-07

 Real part of amplitudes
 Amplitude    Transitions between orbitals
  1.0000       infty       ->    2 (B2g) B                   
 -0.0006       infty       ->    5 (B2g) B                   
 -0.0002       infty       ->    7 (B2g) B                   
 -0.0001       infty       ->    10 (B2g) B                  

              Summary of significant orbitals:

               Number  Type             Irrep      Energy
               40      Vir  Beta        2 (B2g)      0.0714
               30      Vir  Beta        5 (B2g)      0.1468
               52      Vir  Beta        7 (B2g)      0.3247
               85      Vir  Beta       10 (B2g)      1.0986

 Imaginary part of amplitudes
 Amplitude    Transitions between orbitals
 -0.0006       infty       ->    6 (B2g) B                  
  0.0004       infty       ->    5 (B2g) B                  
 -0.0002       infty       ->    4 (B2g) B                  
  0.0002       infty       ->    3 (B2g) B                  

              Summary of significant orbitals:

               Number  Type             Irrep      Energy
               15      Vir  Beta        3 (B2g)     -0.0544
               27      Vir  Beta        4 (B2g)     -0.0414
               30      Vir  Beta        5 (B2g)     -0.0268
               43      Vir  Beta        6 (B2g)     -0.0261


 CS/CAP-EOMEA-CCSD transition 5/B2g
 Total energy = (-109.18496765 , -0.02853134) a.u.  Excitation energy =  (5.6816 , -0.7740) eV.
 (R1|R1) =  (0.9921 , -0.0020)
 (R2|R2) =  (0.0079 , 0.0020)
 Res^2 = 2.09e-09

 Real part of amplitudes
 Amplitude    Transitions between orbitals
  0.9740       infty       ->    6 (B2g) B                  
  0.2469       infty       ->    5 (B2g) B                  
 -0.0667       infty       ->    7 (B2g) B                  
 -0.0296       infty       ->    8 (B2g) B                  

              Summary of significant orbitals:

               Number  Type             Irrep      Energy
               30      Vir  Beta        5 (B2g)      0.1468
               43      Vir  Beta        6 (B2g)      0.2166
               52      Vir  Beta        7 (B2g)      0.3247
               69      Vir  Beta        8 (B2g)      0.5315

 Imaginary part of amplitudes
 Amplitude    Transitions between orbitals
  0.1448       infty       ->    4 (B2g) B                  
  0.0429       infty       ->    5 (B2g) B                  
 -0.0131       infty       ->    7 (B2g) B                  
 -0.0117       infty       ->    6 (B2g) B                  

              Summary of significant orbitals:

               Number  Type             Irrep      Energy
               27      Vir  Beta        4 (B2g)     -0.0414
               30      Vir  Beta        5 (B2g)     -0.0268
               43      Vir  Beta        6 (B2g)     -0.0261
               52      Vir  Beta        7 (B2g)     -0.0293


 CS/CAP-EOMEA-CCSD transition 6/B2g
 Total energy = (-109.08271785 , -0.02998381) a.u.  Excitation energy =  (8.4639 , -0.8135) eV.
 (R1|R1) =  (0.9818 , 0.0005)
 (R2|R2) =  (0.0182 , -0.0005)
 Res^2 = 6.54e-09

 Real part of amplitudes
 Amplitude    Transitions between orbitals
  0.9785       infty       ->    7 (B2g) B                  
 -0.1255       infty       ->    5 (B2g) B                  
  0.0991       infty       ->    6 (B2g) B                  
  0.0706       infty       ->    8 (B2g) B                  

              Summary of significant orbitals:

               Number  Type             Irrep      Energy
               30      Vir  Beta        5 (B2g)      0.1468
               43      Vir  Beta        6 (B2g)      0.2166
               52      Vir  Beta        7 (B2g)      0.3247
               69      Vir  Beta        8 (B2g)      0.5315

 Imaginary part of amplitudes
 Amplitude    Transitions between orbitals
 -0.0799       infty       ->    4 (B2g) B                  
  0.0196       infty       ->    6 (B2g) B                  
  0.0055       infty       ->    3 (B2g) B                  
  0.0055       infty       ->    5 (B2g) B                  

              Summary of significant orbitals:

               Number  Type             Irrep      Energy
               15      Vir  Beta        3 (B2g)     -0.0544
               27      Vir  Beta        4 (B2g)     -0.0414
               30      Vir  Beta        5 (B2g)     -0.0268
               43      Vir  Beta        6 (B2g)     -0.0261


 CS/CAP-EOMEA-CCSD transition 7/B2g
 Total energy = (-108.95699818 , -0.03770602) a.u.  Excitation energy =  (11.8849 , -1.0236) eV.
 (R1|R1) =  (0.0075 , -0.0075)
 (R2|R2) =  (0.9925 , 0.0075)
 Res^2 = 4.53e-07

 Real part of amplitudes
 Amplitude    Transitions between orbitals
 -0.7062       1 (B2u) A   ->    4 (B3u) A     5 (B3g) B    
  0.7062       1 (B2u) A   ->    5 (B3g) B     4 (B3u) A    
 -0.6669       1 (B3u) A   ->    4 (B3u) A     5 (B2g) B    
  0.6669       1 (B3u) A   ->    5 (B2g) B     4 (B3u) A    
  0.3570       1 (B2u) B   ->    5 (B3g) B     4 (B3u) B    
 -0.3570       1 (B2u) B   ->    4 (B3u) B     5 (B3g) B    
 -0.3527       1 (B2u) A   ->    5 (B3g) A     4 (B3u) B    
  0.3527       1 (B2u) A   ->    4 (B3u) B     5 (B3g) A    
 -0.3395       1 (B3u) A   ->    5 (B2g) A     4 (B3u) B    
  0.3395       1 (B3u) A   ->    4 (B3u) B     5 (B2g) A    
  0.3315       1 (B3u) B   ->    5 (B2g) B     4 (B3u) B    
 -0.3315       1 (B3u) B   ->    4 (B3u) B     5 (B2g) B    
  0.2043       1 (B3u) A   ->    4 (B3u) A     4 (B2g) B    
 -0.2043       1 (B3u) A   ->    4 (B2g) B     4 (B3u) A    
  0.1983       1 (B2u) A   ->    4 (B3u) A     4 (B3g) B    
 -0.1983       1 (B2u) A   ->    4 (B3g) B     4 (B3u) A    
 -0.1918       1 (B2u) A   ->    4 (B3u) A     6 (B3g) B    
  0.1918       1 (B2u) A   ->    6 (B3g) B     4 (B3u) A    
  0.1813       1 (B3u) A   ->    4 (B3u) A     6 (B2g) B    
 -0.1813       1 (B3u) A   ->    6 (B2g) B     4 (B3u) A    
  0.1447       1 (B2u) A   ->    4 (B3u) A     7 (B3g) B    
 -0.1447       1 (B2u) A   ->    7 (B3g) B     4 (B3u) A    
 -0.1388       1 (B3u) A   ->    4 (B3u) A     7 (B2g) B    
  0.1388       1 (B3u) A   ->    7 (B2g) B     4 (B3u) A    
 -0.1065       1 (B3u) B   ->    4 (B2g) B     4 (B3u) B    
  0.1065       1 (B3u) B   ->    4 (B3u) B     4 (B2g) B    
 -0.1022       1 (B2u) B   ->    4 (B3g) B     4 (B3u) B    
  0.1022       1 (B2u) B   ->    4 (B3u) B     4 (B3g) B    
 -0.1004       1 (B2u) A   ->    4 (B3u) A     8 (B3g) B    
  0.1004       1 (B2u) A   ->    8 (B3g) B     4 (B3u) A    
  0.1003       1 (B3u) A   ->    4 (B2g) A     4 (B3u) B    
 -0.1003       1 (B3u) A   ->    4 (B3u) B     4 (B2g) A    

              Summary of significant orbitals:

               Number  Type             Irrep      Energy
               6       Occ  Alpha       1 (B2u)     -0.6176
               7       Occ  Alpha       1 (B3u)     -0.6176
               6       Occ  Beta        1 (B2u)     -0.6176
               7       Occ  Beta        1 (B3u)     -0.6176
               27      Vir  Alpha       4 (B2g)      0.1360
               30      Vir  Alpha       5 (B2g)      0.1468
               29      Vir  Alpha       5 (B3g)      0.1468
               11      Vir  Alpha       4 (B3u)      0.0726
               27      Vir  Beta        4 (B2g)      0.1360
               30      Vir  Beta        5 (B2g)      0.1468
               43      Vir  Beta        6 (B2g)      0.2166
               52      Vir  Beta        7 (B2g)      0.3247
               26      Vir  Beta        4 (B3g)      0.1360
               29      Vir  Beta        5 (B3g)      0.1468
               42      Vir  Beta        6 (B3g)      0.2166
               51      Vir  Beta        7 (B3g)      0.3247
               68      Vir  Beta        8 (B3g)      0.5315
               11      Vir  Beta        4 (B3u)      0.0726

 Imaginary part of amplitudes
 Amplitude    Transitions between orbitals
 -0.4882       1 (B2u) A   ->    4 (B3u) A     4 (B3g) B    
  0.4882       1 (B2u) A   ->    4 (B3g) B     4 (B3u) A    
 -0.4561       1 (B3u) A   ->    4 (B3u) A     4 (B2g) B    
  0.4561       1 (B3u) A   ->    4 (B2g) B     4 (B3u) A    
  0.2463       1 (B2u) B   ->    4 (B3g) B     4 (B3u) B    
 -0.2463       1 (B2u) B   ->    4 (B3u) B     4 (B3g) B    
 -0.2443       1 (B2u) A   ->    4 (B3g) A     4 (B3u) B    
  0.2443       1 (B2u) A   ->    4 (B3u) B     4 (B3g) A    
 -0.2328       1 (B3u) A   ->    4 (B2g) A     4 (B3u) B    
  0.2328       1 (B3u) A   ->    4 (B3u) B     4 (B2g) A    
  0.2259       1 (B3u) B   ->    4 (B2g) B     4 (B3u) B    
 -0.2259       1 (B3u) B   ->    4 (B3u) B     4 (B2g) B    
 -0.1299       1 (B3u) A   ->    4 (B3u) A     5 (B2g) B    
  0.1299       1 (B3u) A   ->    5 (B2g) B     4 (B3u) A    
  0.1219       1 (B2u) A   ->    4 (B3u) A     3 (B3g) B    
 -0.1219       1 (B2u) A   ->    3 (B3g) B     4 (B3u) A    
  0.1142       1 (B3u) A   ->    4 (B3u) A     3 (B2g) B    
 -0.1142       1 (B3u) A   ->    3 (B2g) B     4 (B3u) A    
 -0.1099       1 (B2u) A   ->    4 (B3u) A     5 (B3g) B    
  0.1099       1 (B2u) A   ->    5 (B3g) B     4 (B3u) A    

              Summary of significant orbitals:

               Number  Type             Irrep      Energy
               6       Occ  Alpha       1 (B2u)     -0.0001
               7       Occ  Alpha       1 (B3u)     -0.0001
               6       Occ  Beta        1 (B2u)     -0.0001
               7       Occ  Beta        1 (B3u)     -0.0001
               27      Vir  Alpha       4 (B2g)     -0.0414
               26      Vir  Alpha       4 (B3g)     -0.0414
               11      Vir  Alpha       4 (B3u)     -0.0373
               15      Vir  Beta        3 (B2g)     -0.0544
               27      Vir  Beta        4 (B2g)     -0.0414
               30      Vir  Beta        5 (B2g)     -0.0268
               14      Vir  Beta        3 (B3g)     -0.0544
               26      Vir  Beta        4 (B3g)     -0.0414
               29      Vir  Beta        5 (B3g)     -0.0268
               11      Vir  Beta        4 (B3u)     -0.0373


           Complex-valued EOMEA-CCSD left amplitudes will be solved.
           Alpha= 1.00e+00   Theta= 0.00e+00   Eta= 1.37e-03   Re_Eta= 0.00e+00

        Amplitudes will be solved using MOM  algorithm.
     Hard-coded thresholds: 
     LinDepThresh=1.00e-15  NormThresh=1.00e-06  ReorthogonThresh=1.00e-02

      Roots     MaxVec    MaxIter   Precond   Conv      Shift    
      7         120       60        1         1.00e-06  0.00e+00  
 ------------------------------------------------------------------------------
      Iter ConvRoots NVecs ResNorm^2 Current eigenvalues (eV)
 ------------------------------------------------------------------------------
      0    0      7     1.32e-03   (2.6048,-0.2708)   (2.2149,-1.4885)   (3.8496,-1.4405)   (1.9416,-5.0414)   (5.6816,-0.7740)   (8.4639,-0.8135)   (11.8849,-1.0236)   
      1    0      14    9.25e-04   (2.6047,-0.2707)   (2.2149,-1.4885)   (3.8496,-1.4405)   (1.9416,-5.0414)   (5.6816,-0.7740)   (8.4639,-0.8135)   (11.8850,-1.0236)   
      2    0      21    1.99e-04   (2.6047,-0.2707)   (2.2149,-1.4885)   (3.8496,-1.4405)   (1.9416,-5.0414)   (5.6816,-0.7740)   (8.4639,-0.8135)   (11.8849,-1.0236)   
      3    2      28    4.95e-06   (2.6047,-0.2707)   (2.2149,-1.4885)*  (3.8496,-1.4405)   (1.9416,-5.0414)*  (5.6816,-0.7740)   (8.4639,-0.8135)   (11.8848,-1.0237)   
      4    6      33    1.25e-06   (2.6047,-0.2707)*  (2.2149,-1.4885)*  (3.8496,-1.4405)*  (1.9416,-5.0414)*  (5.6816,-0.7740)*  (8.4639,-0.8135)*  (11.8847,-1.0238)   
      5    6      34    1.46e-06   (2.6047,-0.2707)*  (2.2149,-1.4885)*  (3.8496,-1.4405)*  (1.9416,-5.0414)*  (5.6816,-0.7740)*  (8.4639,-0.8135)*  (11.8850,-1.0241)   
      6    6      35    5.67e-07   (2.6047,-0.2707)*  (2.2149,-1.4885)*  (3.8496,-1.4405)*  (1.9416,-5.0414)*  (5.6816,-0.7740)*  (8.4639,-0.8135)*  (11.8847,-1.0240)   
      7    7      36    5.03e-07   (2.6047,-0.2707)*  (2.2149,-1.4885)*  (3.8496,-1.4405)*  (1.9416,-5.0414)*  (5.6816,-0.7740)*  (8.4639,-0.8135)*  (11.8847,-1.0239)*  

     Davidson procedure converged
 Summary of CS/CAP calculations: 
 CS/CAP parameters: Alpha = 1.00e+00; Theta = 0.00e+00; Eta = 1.37e-03; Re_Eta = 0.00e+00

 Properties for CS/CAP-EOM-CCSD/MP2 state 1/B2g

 Total energy: E_tot = (-109.29803804 , -0.01003970) a.u. 
 First order correction: eta * tr[gamma W] = (-0.00124279 , 0.00132859) a.u. 
 Absolute value of first-order correction: 0.00181925 a.u.
 Corrected energy: U_tot = (-109.29679525 , -0.01136829) a.u. 
 ||OPDM(AO)||: alpha = (2.67117186 , 0.29026729); beta = (382.97828666 , 370.98413640)
 ||OPDM(MO)||: alpha+beta = (3.99125188 , 0.95803721)
  w_im(MO) = 0.06113906
 Trace of 1-e DM (MO) = (15.00000000 , -0.00000000)
 ||eta*W(AO)||: (0.00000000 , 0.65627023)
 One-electron energy: (-199.50029670 , 0.69953457)
 Separable two electron energy: (66.95841507 , -0.74791744)

 Properties for CS/CAP-EOM-CCSD/MP2 state 2/B2g

 Total energy: E_tot = (-109.31236578 , -0.05478950) a.u. 
 First order correction: eta * tr[gamma W] = (0.03251592 , -0.05127957) a.u. 
 Absolute value of first-order correction: 0.06071967 a.u.
 Corrected energy: U_tot = (-109.34488170 , -0.00350993) a.u. 
 ||OPDM(AO)||: alpha = (2.89706771 , 0.14627629); beta = (2570.59284420 , 4327.47546170)
 ||OPDM(MO)||: alpha+beta = (3.87741578 , 0.17572555)
  w_im(MO) = 0.00205815
 Trace of 1-e DM (MO) = (15.00000000 , 0.00000000)
 ||eta*W(AO)||: (0.00000000 , 0.65627023)
 One-electron energy: (-195.76521209 , 0.12797137)
 Separable two electron energy: (63.07055215 , -0.17598324)

 Properties for CS/CAP-EOM-CCSD/MP2 state 3/B2g

 Total energy: E_tot = (-109.25229158 , -0.05302582) a.u. 
 First order correction: eta * tr[gamma W] = (-0.02226051 , -0.04913278) a.u. 
 Absolute value of first-order correction: 0.05394034 a.u.
 Corrected energy: U_tot = (-109.23003107 , -0.00389304) a.u. 
 ||OPDM(AO)||: alpha = (2.87274834 , 0.13973433); beta = (19785.69624782 , 7334.82887887)
 ||OPDM(MO)||: alpha+beta = (4.00836577 , 1.03885050)
  w_im(MO) = 0.07200599
 Trace of 1-e DM (MO) = (15.00000000 , -0.00000000)
 ||eta*W(AO)||: (0.00000000 , 0.65627023)
 One-electron energy: (-196.24045036 , -0.57143192)
 Separable two electron energy: (63.62016858 , 0.53873926)

 Properties for CS/CAP-EOM-CCSD/MP2 state 4/B2g

 Total energy: E_tot = (-109.32240767 , -0.18535559) a.u. 
 First order correction: eta * tr[gamma W] = (0.01369727 , -0.20858118) a.u. 
 Absolute value of first-order correction: 0.20903044 a.u.
 Corrected energy: U_tot = (-109.33610493 , 0.02322559) a.u. 
 ||OPDM(AO)||: alpha = (2.89128425 , 0.16624296); beta = (11695.75528587 , 7023.27046419)
 ||OPDM(MO)||: alpha+beta = (3.87344869 , 0.00940297)
  w_im(MO) = 0.00000589
 Trace of 1-e DM (MO) = (15.00000000 , 0.00000000)
 ||eta*W(AO)||: (0.00000000 , 0.65627023)
 One-electron energy: (-195.44151355 , -0.16822695)
 Separable two electron energy: (62.73763753 , -0.01717923)

 Properties for CS/CAP-EOM-CCSD/MP2 state 5/B2g

 Total energy: E_tot = (-109.18496765 , -0.02853134) a.u. 
 First order correction: eta * tr[gamma W] = (-0.00810267 , -0.02343841) a.u. 
 Absolute value of first-order correction: 0.02479944 a.u.
 Corrected energy: U_tot = (-109.17686498 , -0.00509293) a.u. 
 ||OPDM(AO)||: alpha = (2.87716389 , 0.16729520); beta = (10038.32709199 , 1565.40646315)
 ||OPDM(MO)||: alpha+beta = (3.87761668 , 0.22099910)
  w_im(MO) = 0.00325885
 Trace of 1-e DM (MO) = (15.00000000 , -0.00000000)
 ||eta*W(AO)||: (0.00000000 , 0.65627023)
 One-electron energy: (-196.48361665 , -0.16711413)
 Separable two electron energy: (63.93404688 , 0.14346760)

 Properties for CS/CAP-EOM-CCSD/MP2 state 6/B2g

 Total energy: E_tot = (-109.08271785 , -0.02998381) a.u. 
 First order correction: eta * tr[gamma W] = (-0.01287630 , -0.02251292) a.u. 
 Absolute value of first-order correction: 0.02593513 a.u.
 Corrected energy: U_tot = (-109.06984155 , -0.00747088) a.u. 
 ||OPDM(AO)||: alpha = (2.85342494 , 0.17153538); beta = (8268.42385915 , 4830.24558844)
 ||OPDM(MO)||: alpha+beta = (3.87060819 , 0.12061940)
  w_im(MO) = 0.00097207
 Trace of 1-e DM (MO) = (15.00000000 , -0.00000000)
 ||eta*W(AO)||: (0.00000000 , 0.65627023)
 One-electron energy: (-196.70488828 , -0.13974225)
 Separable two electron energy: (64.27409415 , 0.11064998)

 Properties for CS/CAP-EOM-CCSD/MP2 state 7/B2g

 Total energy: E_tot = (-108.95699818 , -0.03770602) a.u. 
 First order correction: eta * tr[gamma W] = (-0.00629437 , 0.00298225) a.u. 
 Absolute value of first-order correction: 0.00696512 a.u.
 Corrected energy: U_tot = (-108.95070381 , -0.04068827) a.u. 
 ||OPDM(AO)||: alpha = (6.46418618 , 7.31848862); beta = (45.54819191 , 105.96916744)
 ||OPDM(MO)||: alpha+beta = (4.02855771 , 0.99531576)
  w_im(MO) = 0.06500938
 Trace of 1-e DM (MO) = (15.00000000 , -0.00000000)
 ||eta*W(AO)||: (0.00000000 , 0.65627023)
 One-electron energy: (-196.25336137 , 0.21514916)
 Separable two electron energy: (64.36130842 , -0.24918324)


 Corrected total energies for CS/CAP-EOM states (alpha = 1.00e+00 | theta = 0.00e+00| eta = 1.37e-03| re_eta = 0.00e+00):
 State         Re(E)            Im(E)
   1      -109.29679525      -0.01136829
   2      -109.34488170      -0.00350993
   3      -109.23003107      -0.00389304
   4      -109.33610493      0.02322559
   5      -109.17686498      -0.00509293
   6      -109.06984155      -0.00747088
   7      -108.95070381      -0.04068827

 Excited state properties for EOMEA-CCSD transition 1/B2g
 Dipole moment (a.u.): (real, imaginary) = (0.000000 , 0.000000)
 (X (0.000000 , 0.000000), Y (0.000000 , 0.000000), Z (0.000000 , 0.000000))
 R-squared (a.u.): 45.995417 (real, imaginary) = (45.856723, 3.569222)
 (XX (8.686630 , 2.241490), YY (8.738111 , 0.550334), ZZ (28.431983 , 0.777398))

 Excited state properties for EOMEA-CCSD transition 2/B2g
 Dipole moment (a.u.): (real, imaginary) = (0.000000 , 0.000000)
 (X (0.000000 , 0.000000), Y (0.000000 , 0.000000), Z (0.000000 , 0.000000))
 R-squared (a.u.): 178.863498 (real, imaginary) = (170.784718, 53.148199)
 (XX (57.088399 , 14.215567), YY (24.134468 , 4.777955), ZZ (89.561851 , 34.154677))

 Excited state properties for EOMEA-CCSD transition 3/B2g
 Dipole moment (a.u.): (real, imaginary) = (0.000000 , 0.000000)
 (X (0.000000 , 0.000000), Y (0.000000 , 0.000000), Z (0.000000 , 0.000000))
 R-squared (a.u.): 154.922626 (real, imaginary) = (150.097260, -38.364471)
 (XX (51.020196 , -5.803320), YY (22.180396 , -1.821836), ZZ (76.896668 , -30.739315))

 Excited state properties for EOMEA-CCSD transition 4/B2g
 Dipole moment (a.u.): (real, imaginary) = (0.000000 , 0.000000)
 (X (0.000000 , 0.000000), Y (0.000000 , 0.000000), Z (0.000000 , 0.000000))
 R-squared (a.u.): 345.519142 (real, imaginary) = (345.172741, 15.467911)
 (XX (151.323851 , 5.017428), YY (55.549023 , 1.675112), ZZ (138.299867 , 8.775370))

 Excited state properties for EOMEA-CCSD transition 5/B2g
 Dipole moment (a.u.): (real, imaginary) = (0.000000 , 0.000000)
 (X (0.000000 , 0.000000), Y (0.000000 , 0.000000), Z (0.000000 , 0.000000))
 R-squared (a.u.): 112.310611 (real, imaginary) = (111.836445, -10.309358)
 (XX (37.409628 , -6.940027), YY (17.666561 , -2.284391), ZZ (56.760257 , -1.084940))

 Excited state properties for EOMEA-CCSD transition 6/B2g
 Dipole moment (a.u.): (real, imaginary) = (0.000000 , 0.000000)
 (X (0.000000 , 0.000000), Y (0.000000 , 0.000000), Z (0.000000 , 0.000000))
 R-squared (a.u.): 106.570902 (real, imaginary) = (105.107518, -17.600194)
 (XX (34.639795 , -6.665190), YY (16.807027 , -2.210597), ZZ (53.660696 , -8.724407))

 Excited state properties for EOMEA-CCSD transition 7/B2g
 Dipole moment (a.u.): (real, imaginary) = (0.000000 , 0.000000)
 (X (0.000000 , 0.000000), Y (0.000000 , 0.000000), Z (0.000000 , 0.000000))
 R-squared (a.u.): 66.525987 (real, imaginary) = (66.525608, 0.224326)
 (XX (26.027451 , -2.815778), YY (13.848093 , -0.966233), ZZ (26.650064 , 4.006337))

Run gradient
Begin  cv_eomea_ccsd_aresp_xi 
Begin  compute aresp 
           CV-EOM amplitude response will be solved using DIIS.
           Start     Size      MaxIter   EConv     ZConv     
           3         7         100       1.00e-06  1.00e-06  
 ------------------------------------------------------------------------------
            Enorm      Zdiff       Comment
 ------------------------------------------------------------------------------
     1     9.43e-02   6.20e-02     
     2     4.47e-02   2.83e-02     
     3     1.82e-02   1.01e-02     
     4     8.38e-03   8.79e-03     Switched to DIIS steps.
     5     2.52e-03   3.31e-03     
     6     1.07e-03   6.71e-04     
     7     3.67e-04   1.33e-04     
     8     1.28e-04   8.26e-06     
     9     4.40e-05   4.13e-06     
    10     2.07e-05   4.22e-06     
    11     7.80e-06   2.34e-08     
    12     3.08e-06   1.78e-07     
    13     1.41e-06   1.81e-07     
    14     4.34e-07   1.12e-07     
 ------------------------------------------------------------------------------
                                   Amplitude response converged.
           Complex orbital response amplitudes will be solved using DIIS.
           Start     Size      MaxIter   EConv     LConv     
           3         7         100       1.00e-06  1.00e-06  
 ------------------------------------------------------------------------------
            Enorm      Ldiff       Comment
 ------------------------------------------------------------------------------
     1     1.56e-01   1.49e-02     
     2     8.43e-02   1.76e-02     
     3     4.31e-02   2.91e-03     
     4     1.50e-03   3.68e-03     Switched to DIIS steps.
     5     2.75e-04   2.75e-04     
     6     6.71e-05   2.06e-05     
     7     1.57e-05   2.45e-06     
     8     5.17e-06   1.07e-06     
     9     9.07e-07   2.76e-07     
 ------------------------------------------------------------------------------
                                   Orbital response converged.

run_tdm_ee
run_tprop_ee
  1/B2g <--> 2/B2g
Norm of transition OPDM:
   A->B: ||gamma|| (real, imaginary) = (1.14e+00,5.98e-01);   w_im=3.83e-01
   B->A: ||gamma|| (real, imaginary) = (1.14e+00,6.03e-01);   w_im=3.85e-01
   Ave : ||gamma|| (real, imaginary) = (1.14e+00,6.00e-01);   w_im=3.84e-01
 Transition dipole moment (a.u.):
   A->B: (real, imaginary) = (0.000000 , 0.000000)
 (X (0.000000 , 0.000000), Y (0.000000 , 0.000000), Z (0.000000 , 0.000000))
   B->A: (real, imaginary) = (0.000000 , 0.000000)
 (X (0.000000 , 0.000000), Y (0.000000 , 0.000000), Z (0.000000 , 0.000000))
 Oscillator strength (a.u.):  (0.000000 , 0.000000)

  1/B2g <--> 3/B2g
Norm of transition OPDM:
   A->B: ||gamma|| (real, imaginary) = (1.376177,0.977143);   w_im=1.016775
   B->A: ||gamma|| (real, imaginary) = (1.391061,0.992610);   w_im=1.037374
   Ave : ||gamma|| (real, imaginary) = (1.383599,0.984846);   w_im=1.026997
 Transition dipole moment (a.u.):
   A->B: (real, imaginary) = (0.000000 , 0.000000)
 (X (0.000000 , 0.000000), Y (0.000000 , 0.000000), Z (0.000000 , 0.000000))
   B->A: (real, imaginary) = (0.000000 , 0.000000)
 (X (0.000000 , 0.000000), Y (0.000000 , 0.000000), Z (0.000000 , 0.000000))
 Oscillator strength (a.u.):  (0.000000 , -0.000000)

  1/B2g <--> 4/B2g
Norm of transition OPDM:
   A->B: ||gamma|| (real, imaginary) = (1.120640,0.569208);   w_im=0.347699
   B->A: ||gamma|| (real, imaginary) = (1.129797,0.576571);   w_im=0.352152
   Ave : ||gamma|| (real, imaginary) = (1.125209,0.572878);   w_im=0.349917
 Transition dipole moment (a.u.):
   A->B: (real, imaginary) = (0.000000 , 0.000000)
 (X (0.000000 , 0.000000), Y (0.000000 , 0.000000), Z (0.000000 , 0.000000))
   B->A: (real, imaginary) = (0.000000 , 0.000000)
 (X (0.000000 , 0.000000), Y (0.000000 , 0.000000), Z (0.000000 , 0.000000))
 Oscillator strength (a.u.):  (-0.000000 , 0.000000)

  1/B2g <--> 5/B2g
Norm of transition OPDM:
   A->B: ||gamma|| (real, imaginary) = (1.136454,0.596668);   w_im=0.380553
   B->A: ||gamma|| (real, imaginary) = (1.146017,0.605983);   w_im=0.388120
   Ave : ||gamma|| (real, imaginary) = (1.141225,0.601308);   w_im=0.384313
 Transition dipole moment (a.u.):
   A->B: (real, imaginary) = (0.000000 , 0.000000)
 (X (0.000000 , 0.000000), Y (0.000000 , 0.000000), Z (0.000000 , 0.000000))
   B->A: (real, imaginary) = (0.000000 , 0.000000)
 (X (0.000000 , 0.000000), Y (0.000000 , 0.000000), Z (0.000000 , 0.000000))
 Oscillator strength (a.u.):  (0.000000 , -0.000000)

  1/B2g <--> 6/B2g
Norm of transition OPDM:
   A->B: ||gamma|| (real, imaginary) = (1.122974,0.574132);   w_im=0.353889
   B->A: ||gamma|| (real, imaginary) = (1.130998,0.581746);   w_im=0.359751
   Ave : ||gamma|| (real, imaginary) = (1.126979,0.577927);   w_im=0.356805
 Transition dipole moment (a.u.):
   A->B: (real, imaginary) = (0.000000 , 0.000000)
 (X (0.000000 , 0.000000), Y (0.000000 , 0.000000), Z (0.000000 , 0.000000))
   B->A: (real, imaginary) = (0.000000 , 0.000000)
 (X (0.000000 , 0.000000), Y (0.000000 , 0.000000), Z (0.000000 , 0.000000))
 Oscillator strength (a.u.):  (-0.000000 , -0.000000)

  1/B2g <--> 7/B2g
Norm of transition OPDM:
   A->B: ||gamma|| (real, imaginary) = (0.608747,0.097461);   w_im=0.026307
   B->A: ||gamma|| (real, imaginary) = (0.609922,0.092711);   w_im=0.023652
   Ave : ||gamma|| (real, imaginary) = (0.609334,0.095056);   w_im=0.024943
 Transition dipole moment (a.u.):
   A->B: (real, imaginary) = (0.000000 , 0.000000)
 (X (0.000000 , 0.000000), Y (0.000000 , 0.000000), Z (0.000000 , 0.000000))
   B->A: (real, imaginary) = (0.000000 , 0.000000)
 (X (0.000000 , 0.000000), Y (0.000000 , 0.000000), Z (0.000000 , 0.000000))
 Oscillator strength (a.u.):  (0.000000 , 0.000000)

 Full complex-valued CS/CAP EOMEA-CCSD calculation:   CPU 6617.72 s  wall 1026.99 s

 Transferring MO TPDM to AO TPDM
 Computing TPDM gradient
 --------------------------------------------------------
 Final gradient
  Atom          X               Y               Z
 --------------------------------------------------------
    1         -0.000000       -0.000000       -8.529759  
    2          0.000000        0.000000        8.529759  
 --------------------------------------------------------
 Analytic gradient from two-electron contribution:   CPU 1210.47 s  wall 111.98 s

Calculating CAP derivative terms (SBK)
Applied grid: 99000590
 CAP derivative contribution to the gradient
            1           2
    1  -0.0000000   0.0000000
    2  -0.0000000   0.0000000
    3   0.0567770  -0.0567770
 Total ccman2 time:   CPU 9590.03 s  wall 1378.97 s


 --------------------------------------------------------------
             Orbital Energies (a.u.) and Symmetries
 --------------------------------------------------------------

 Alpha MOs, Unrestricted
 -- Occupied --                  
-15.682  -1.478  -0.635 -15.679  -0.777  -0.618  -0.618
  1 Ag    2 Ag    3 Ag    1 B1u   2 B1u   1 B2u   1 B3u                        
 -- Virtual --                   
  0.037   0.043   0.045   0.064   0.068   0.076   0.096   0.137
  4 Ag    5 Ag    6 Ag    7 Ag    8 Ag    9 Ag   10 Ag   11 Ag                 
  0.147   0.202   0.275   0.322   0.346   0.527   0.659   0.713
 12 Ag   13 Ag   14 Ag   15 Ag   16 Ag   17 Ag   18 Ag   19 Ag                 
  1.042   1.475   1.578   1.750   1.804   2.987   4.069   4.463
 20 Ag   21 Ag   22 Ag   23 Ag   24 Ag   25 Ag   26 Ag   27 Ag                 
  4.759   5.218   6.804  12.393   0.063   0.148   0.346   0.714
 28 Ag   29 Ag   30 Ag   31 Ag    1 B1g   2 B1g   3 B1g   4 B1g                
  1.578   1.750   4.463   5.218   0.039   0.071   0.080   0.136
  5 B1g   6 B1g   7 B1g   8 B1g   1 B2g   2 B2g   3 B2g   4 B2g                
  0.147   0.217   0.325   0.531   0.910   1.099   1.722   1.961
  5 B2g   6 B2g   7 B2g   8 B2g   9 B2g  10 B2g  11 B2g  12 B2g                
  2.475   4.452   5.049   5.440   6.957   0.039   0.071   0.080
 13 B2g  14 B2g  15 B2g  16 B2g  17 B2g   1 B3g   2 B3g   3 B3g                
  0.136   0.147   0.217   0.325   0.531   0.910   1.099   1.722
  4 B3g   5 B3g   6 B3g   7 B3g   8 B3g   9 B3g  10 B3g  11 B3g                
  1.961   2.475   4.452   5.049   5.440   6.957   0.079   0.188
 12 B3g  13 B3g  14 B3g  15 B3g  16 B3g  17 B3g   1 Au    2 Au                 
  0.426   0.879   1.811   2.332   5.269   5.791   0.043   0.061
  3 Au    4 Au    5 Au    6 Au    7 Au    8 Au    3 B1u   4 B1u                
  0.067   0.080   0.080   0.093   0.186   0.187   0.222   0.414
  5 B1u   6 B1u   7 B1u   8 B1u   9 B1u  10 B1u  11 B1u  12 B1u                
  0.426   0.456   0.780   0.879   0.906   1.254   1.811   1.836
 13 B1u  14 B1u  15 B1u  16 B1u  17 B1u  18 B1u  19 B1u  20 B1u                
  2.082   2.332   2.820   4.710   5.269   5.311   5.791   6.821
 21 B1u  22 B1u  23 B1u  24 B1u  25 B1u  26 B1u  27 B1u  28 B1u                
 20.052   0.036   0.064   0.073   0.077   0.193   0.244   0.447
 29 B1u   2 B2u   3 B2u   4 B2u   5 B2u   6 B2u   7 B2u   8 B2u                
  0.725   1.002   1.372   1.657   2.201   3.464   4.562   4.657
  9 B2u  10 B2u  11 B2u  12 B2u  13 B2u  14 B2u  15 B2u  16 B2u                
  5.699   0.036   0.064   0.073   0.077   0.193   0.244   0.447
 17 B2u   2 B3u   3 B3u   4 B3u   5 B3u   6 B3u   7 B3u   8 B3u                
  0.725   1.002   1.372   1.657   2.201   3.464   4.562   4.657
  9 B3u  10 B3u  11 B3u  12 B3u  13 B3u  14 B3u  15 B3u  16 B3u                
  5.699
 17 B3u                                                                        

 Beta MOs, Unrestricted
 -- Occupied --                  
-15.682  -1.478  -0.635 -15.679  -0.777  -0.618  -0.618
  1 Ag    2 Ag    3 Ag    1 B1u   2 B1u   1 B2u   1 B3u                        
 -- Virtual --                   
  0.037   0.043   0.045   0.064   0.068   0.076   0.096   0.137
  4 Ag    5 Ag    6 Ag    7 Ag    8 Ag    9 Ag   10 Ag   11 Ag                 
  0.147   0.202   0.275   0.322   0.346   0.527   0.659   0.713
 12 Ag   13 Ag   14 Ag   15 Ag   16 Ag   17 Ag   18 Ag   19 Ag                 
  1.042   1.475   1.578   1.750   1.804   2.987   4.069   4.463
 20 Ag   21 Ag   22 Ag   23 Ag   24 Ag   25 Ag   26 Ag   27 Ag                 
  4.759   5.218   6.804  12.393   0.063   0.148   0.346   0.714
 28 Ag   29 Ag   30 Ag   31 Ag    1 B1g   2 B1g   3 B1g   4 B1g                
  1.578   1.750   4.463   5.218   0.039   0.071   0.080   0.136
  5 B1g   6 B1g   7 B1g   8 B1g   1 B2g   2 B2g   3 B2g   4 B2g                
  0.147   0.217   0.325   0.531   0.910   1.099   1.722   1.961
  5 B2g   6 B2g   7 B2g   8 B2g   9 B2g  10 B2g  11 B2g  12 B2g                
  2.475   4.452   5.049   5.440   6.957   0.039   0.071   0.080
 13 B2g  14 B2g  15 B2g  16 B2g  17 B2g   1 B3g   2 B3g   3 B3g                
  0.136   0.147   0.217   0.325   0.531   0.910   1.099   1.722
  4 B3g   5 B3g   6 B3g   7 B3g   8 B3g   9 B3g  10 B3g  11 B3g                
  1.961   2.475   4.452   5.049   5.440   6.957   0.079   0.188
 12 B3g  13 B3g  14 B3g  15 B3g  16 B3g  17 B3g   1 Au    2 Au                 
  0.426   0.879   1.811   2.332   5.269   5.791   0.043   0.061
  3 Au    4 Au    5 Au    6 Au    7 Au    8 Au    3 B1u   4 B1u                
  0.067   0.080   0.080   0.093   0.186   0.187   0.222   0.414
  5 B1u   6 B1u   7 B1u   8 B1u   9 B1u  10 B1u  11 B1u  12 B1u                
  0.426   0.456   0.780   0.879   0.906   1.254   1.811   1.836
 13 B1u  14 B1u  15 B1u  16 B1u  17 B1u  18 B1u  19 B1u  20 B1u                
  2.082   2.332   2.820   4.710   5.269   5.311   5.791   6.821
 21 B1u  22 B1u  23 B1u  24 B1u  25 B1u  26 B1u  27 B1u  28 B1u                
 20.052   0.036   0.064   0.073   0.077   0.193   0.244   0.447
 29 B1u   2 B2u   3 B2u   4 B2u   5 B2u   6 B2u   7 B2u   8 B2u                
  0.725   1.002   1.372   1.657   2.201   3.464   4.562   4.657
  9 B2u  10 B2u  11 B2u  12 B2u  13 B2u  14 B2u  15 B2u  16 B2u                
  5.699   0.036   0.064   0.073   0.077   0.193   0.244   0.447
 17 B2u   2 B3u   3 B3u   4 B3u   5 B3u   6 B3u   7 B3u   8 B3u                
  0.725   1.002   1.372   1.657   2.201   3.464   4.562   4.657
  9 B3u  10 B3u  11 B3u  12 B3u  13 B3u  14 B3u  15 B3u  16 B3u                
  5.699
 17 B3u                                                                        
 --------------------------------------------------------------

          Ground-State Mulliken Net Atomic Charges

     Atom                 Charge (a.u.)    Spin (a.u.)
  --------------------------------------------------------
      1 N                    -0.500000      -0.500000
      2 N                    -0.500000      -0.500000
  --------------------------------------------------------
  Sum of atomic charges =    -1.000000
  Sum of spin   charges =    -1.000000

 -----------------------------------------------------------------
                    Cartesian Multipole Moments
 -----------------------------------------------------------------
    Charge (ESU x 10^10)
                -4.8032
    Dipole Moment (Debye)
         X       0.0000      Y       0.0000      Z       0.0000
       Tot       0.0000
    Quadrupole Moments (Debye-Ang)
        XX     -11.7575     XY       0.0000     YY     -11.8368
        XZ       0.0000     YZ       0.0000     ZZ     -18.4320
    Octopole Moments (Debye-Ang^2)
       XXX       0.0000    XXY       0.0000    XYY       0.0000
       YYY       0.0000    XXZ       0.0000    XYZ       0.0000
       YYZ       0.0000    XZZ       0.0000    YZZ       0.0000
       ZZZ       0.0000
    Hexadecapole Moments (Debye-Ang^3)
      XXXX      46.3478   XXXY       0.0000   XXYY       7.4672
      XYYY       0.0000   YYYY      -1.5448   XXXZ      -0.0000
      XXYZ       0.0000   XYYZ      -0.0000   YYYZ       0.0000
      XXZZ      -9.9036   XYZZ      -0.0000   YYZZ      -9.0390
      XZZZ       0.0000   YZZZ       0.0000   ZZZZ    -113.4463
 -----------------------------------------------------------------
 DrvMan completing analytic gradient of the correlated energy
 Correlated dipole moment
            1
    1   0.0000000
    2   0.0000000
    3   0.0000000
 Energy read as -109.298038039
 Full Analytical Gradient: (in a.u., or Hartree/Bohr)
             1             2
    1   -0.00000000    0.00000000
    2   -0.00000000    0.00000000
    3   -0.21443538    0.21443538
 Gradient time:  CPU 1.66 s  wall 1.66 s
 Total job time:  1393.01s(wall), 9666.40s(cpu) 
 Tue Apr 11 15:34:03 2023

        *************************************************************
        *                                                           *
        *  Thank you very much for using Q-Chem.  Have a nice day.  *
        *                                                           *
        *************************************************************


