                  Welcome to Q-Chem
     A Quantum Leap Into The Future Of Chemistry


 Q-Chem 6.0 (devel), Q-Chem, Inc., Pleasanton, CA (2022)

 E. Epifanovsky,  A. T. B. Gilbert,  Xintian Feng,  Joonho Lee,  Yuezhi Mao,  
 N. Mardirossian,  P. Pokhilko,  A. White,  M. Wormit,  M. P. Coons,  
 A. L. Dempwolff,  Zhengting Gan,  D. Hait,  P. R. Horn,  L. D. Jacobson,  
 I. Kaliman,  J. Kussmann,  A. W. Lange,  Ka Un Lao,  D. S. Levine,  Jie Liu,  
 S. C. McKenzie,  A. F. Morrison,  K. Nanda,  F. Plasser,  D. R. Rehn,  
 M. L. Vidal,  Zhi-Qiang You,  Ying Zhu,  B. Alam,  B. Albrecht,  
 A. Aldossary,  E. Alguire,  J. H. Andersen,  V. Athavale,  D. Barton,  
 K. Begam,  A. Behn,  N. Bellonzi,  Y. A. Bernard,  E. J. Berquist,  
 H. Burton,  A. Carreras,  K. Carter-Fenk,  Romit Chakraborty,  
 Chandrima Chakravarty,  Junhan Chen,  A. D. Chien,  K. D. Closser,  
 V. Cofer-Shabica,  L. Cunha,  S. Dasgupta,  Jia Deng,  M. de Wergifosse,  
 M. Diedenhofen,  Hainam Do,  S. Ehlert,  Po-Tung Fang,  S. Fatehi,  
 Qingguo Feng,  T. Friedhoff,  B. Ganoe,  J. Gayvert,  Qinghui Ge,  
 G. Gidofalvi,  M. Goldey,  J. Gomes,  C. Gonzalez-Espinoza,  S. Gulania,  
 A. Gunina,  J. A. Gyamfi,  M. W. D. Hanson-Heine,  P. H. P. Harbach,  
 A. W. Hauser,  M. F. Herbst,  M. Hernandez Vera,  M. Hodecker,  
 Z. C. Holden,  S. Houck,  Xunkun Huang,  Kerwin Hui,  B. C. Huynh,  
 K. Ikeda,  M. Ivanov,  Hyunjun Ji,  Zuxin Jin,  Hanjie Jiang,  B. Kaduk,  
 S. Kaehler,  R. Kang,  K. Khistyaev,  Jaehoon Kim,  Yongbin Kim,  
 P. Klunzinger,  Z. Koczor-Benda,  Joong Hoon Koh,  D. Kosenkov,  
 Saikiran Kotaru,  L. Koulias,  T. Kowalczyk,  C. M. Krauter,  K. Kue,  
 A. Kunitsa,  T. Kus,  A. Landau,  K. V. Lawler,  D. Lefrancois,  S. Lehtola,  
 Rain Li,  Shaozhi Li,  Yi-Pei Li,  Jiashu Liang,  M. Liebenthal,  
 Hung-Hsuan Lin,  You-Sheng Lin,  Fenglai Liu,  Kuan-Yu Liu,  
 M. Loipersberger,  A. Luenser,  C. Malbon,  A. Manjanath,  P. Manohar,  
 E. Mansoor,  S. F. Manzer,  Shan-Ping Mao,  A. V. Marenich,  T. Markovich,  
 S. Mason,  F. Matz,  S. A. Maurer,  P. F. McLaughlin,  M. F. S. J. Menger,  
 J.-M. Mewes,  S. A. Mewes,  P. Morgante,  Mohammad Mostafanejad,  
 J. W. Mullinax,  K. J. Oosterbaan,  G. Paran,  V. Parravicini,  
 Alexander C. Paul,  Suranjan K. Paul,  F. Pavosevic,  Zheng Pei,  S. Prager,  
 E. I. Proynov,  E. Ramos,  B. Rana,  A. E. Rask,  A. Rettig,  R. M. Richard,  
 F. Rob,  E. Rossomme,  T. Scheele,  M. Scheurer,  M. Schneider,  
 P. E. Schneider,  N. Sergueev,  S. M. Sharada,  Hengyuan Shen,  
 W. Skomorowski,  D. W. Small,  C. J. Stein,  Yingli Su,  Yu-Chuan Su,  
 E. J. Sundstrom,  Zhen Tao,  J. Thirman,  Hung-Yi Tsai,  T. Tsuchimochi,  
 N. M. Tubman,  C. Utku,  S. P. Veccham,  O. Vydrov,  J. Wenzel,  
 Jonathan Wong,  J. Witte,  A. Yamada,  Chou-Hsun Yang,  Kun Yao,  
 S. Yeganeh,  S. R. Yost,  A. Zech,  F. Zeller,  Igor Ying Zhang,  
 Xing Zhang,  Yu Zhang,  D. Zuev,  A. Aspuru-Guzik,  A. T. Bell,  
 N. A. Besley,  K. B. Bravaya,  B. R. Brooks,  D. Casanova,  Jeng-Da Chai,  
 Hsing-Ta Chen,  S. Coriani,  C. J. Cramer,  A. E. DePrince, III,  
 R. A. DiStasio Jr.,  A. Dreuw,  B. D. Dunietz,  T. R. Furlani,  
 W. A. Goddard III,  S. Grimme,  S. Hammes-Schiffer,  T. Head-Gordon,  
 W. J. Hehre,  Chao-Ping Hsu,  T.-C. Jagau,  Yousung Jung,  A. Klamt,  
 Jing Kong,  D. S. Lambrecht,  Xiangyuan Li,  WanZhen Liang,  N. J. Mayhall,  
 C. W. McCurdy,  J. B. Neaton,  T. Neudecker,  C. Ochsenfeld,  
 J. A. Parkhill,  R. Peverati,  V. A. Rassolov,  Haisheng Ren,  Yihan Shao,  
 L. V. Slipchenko,  R. P. Steele,  J. E. Subotnik,  A. J. W. Thom,  
 A. Tkatchenko,  D. G. Truhlar,  T. Van Voorhis,  Fan Wang,  
 T. A. Wesolowski,  K. B. Whaley,  H. L. Woodcock III,  P. M. Zimmerman,  
 S. Faraji,  P. M. W. Gill,  M. Head-Gordon,  J. M. Herbert,  A. I. Krylov

 Contributors to earlier versions of Q-Chem not listed above: 
 R. D. Adamson,  B. Austin,  R. Baer,  J. Baker,  G. J. O. Beran,  
 K. Brandhorst,  S. T. Brown,  E. F. C. Byrd,  Arup K. Chakraborty,  
 G. K. L. Chan,  Chun-Min Chang,  Yunqing Chen,  C.-L. Cheng,  
 Siu Hung Chien,  D. M. Chipman,  D. L. Crittenden,  H. Dachsel,  
 R. J. Doerksen,  A. D. Dutoi,  R. G. Edgar,  J. Fosso-Tande,  
 L. Fusti-Molnar,  D. Ghosh,  A. Ghysels,  A. Golubeva-Zadorozhnaya,  
 J. Gonthier,  M. S. Gordon,  S. R. Gwaltney,  G. Hawkins,  J. E. Herr,  
 A. Heyden,  S. Hirata,  E. G. Hohenstein,  G. Kedziora,  F. J. Keil,  
 C. Kelley,  Jihan Kim,  R. A. King,  R. Z. Khaliullin,  P. P. Korambath,  
 W. Kurlancheek,  A. Laurent,  A. M. Lee,  M. S. Lee,  S. V. Levchenko,  
 Ching Yeh Lin,  D. Liotard,  E. Livshits,  R. C. Lochan,  I. Lotan,  
 L. A. Martinez-Martinez,  P. E. Maslen,  N. Nair,  D. P. O'Neill,  
 D. Neuhauser,  E. Neuscamman,  C. M. Oana,  R. Olivares-Amaya,  R. Olson,  
 T. M. Perrine,  B. Peters,  P. A. Pieniazek,  A. Prociuk,  Y. M. Rhee,  
 J. Ritchie,  M. A. Rohrdanz,  E. Rosta,  N. J. Russ,  H. F. Schaefer III,  
 M. W. Schmidt,  N. E. Schultz,  S. Sharma,  N. Shenvi,  C. D. Sherrill,  
 A. C. Simmonett,  A. Sodt,  T. Stein,  D. Stuck,  K. S. Thanthiriwatte,  
 V. Vanovschi,  L. Vogt,  Tao Wang,  A. Warshel,  M. A. Watson,  
 C. F. Williams,  Q. Wu,  X. Xu,  Jun Yang,  W. Zhang,  Yan Zhao

   Please cite Q-Chem as follows:
  "Software for the frontiers of quantum chemistry:
   An overview of developments in the Q-Chem 5 package"
   J. Chem. Phys. 155, 084801 (2021)
   https://doi.org/10.1063/5.0055522 (open access)

 Q-Chem 6.0.0 for Intel X86 EM64T Linux

 Parts of Q-Chem use Armadillo 9.900.5 (Nocturnal Misbehaviour).
 http://arma.sourceforge.net/

 Q-Chem begins on Wed Mar  8 17:25:29 2023  

 Host: node7
0

     Scratch files written to /scratch/sbkmdl/NCCT2S5P2D_0p545_state7_FZC.560047068.saved//
 Processing $rem in /home/qcsoftware/qchem/builds/qc601/qc6012/config/preferences:
 Processing $rem in /home/sbkmdl/.qchemrc:

 Checking the input file for inconsistencies... 	...done.

--------------------------------------------------------------
User input:
--------------------------------------------------------------
$molecule
0       1
N        0.0     0.0     0.545
N        0.0     0.0     -0.545
$end
$rem
   METHOD          eom-ccsd
   BASIS            gen
   XC_GRID         000099000590
   GUI 2
   EA_STATES       [0,0,7,0,0,0,0,0]
   CC_TRANS_PROP 2
   CALC_NAC  2
   N_FROZEN_CORE 0
   complex_ccman 1
$end

$basis
N     0
S   10   1.00
      1.142000D+04           5.230000D-04
      1.712000D+03           4.045000D-03
      3.893000D+02           2.077500D-02
      1.100000D+02           8.072700D-02
      3.557000D+01           2.330740D-01
      1.254000D+01           4.335010D-01
      4.644000D+00           3.474720D-01
      1.293000D+00           4.126200D-02
      5.118000D-01          -8.508000D-03
      1.787000D-01           2.384000D-03
S   1   1.00
      1.293000D+00           1.000000D+00
S   10   1.00
      1.142000D+04          -1.150000D-04
      1.712000D+03          -8.950000D-04
      3.893000D+02          -4.624000D-03
      1.100000D+02          -1.852800D-02
      3.557000D+01          -5.733900D-02
      1.254000D+01          -1.320760D-01
      4.644000D+00          -1.725100D-01
      1.293000D+00           1.518140D-01
      5.118000D-01           5.999440D-01
      1.787000D-01           3.874620D-01
S   1   1.00
      1.787000D-01           1.000000D+00
S   1   1.00
      0.0576000              1.0000000
S   1   1.00
      0.0288000              1.0000000
S   1   1.00
      0.0144000              1.0000000
S   1   1.00
      0.0072000              1.0000000
P   1   1.00
      5.550000D-01           1.000000D+00
P   5   1.00
      2.663000D+01           1.467000D-02
      5.948000D+00           9.176400D-02
      1.742000D+00           2.986830D-01
      5.550000D-01           4.984870D-01
      1.725000D-01           3.370230D-01
P   1   1.00
      1.725000D-01           1.000000D+00
P   1   1.00
      0.0491000              1.0000000
P   1   1.00
      0.0245500              1.0000000 
P   1   1.00
      0.0122750              1.0000000 
P   1   1.00
      0.0061375              1.0000000
D   1   1.00
      1.654000D+00           1.000000D+00
D   1   1.00
      4.690000D-01           1.000000D+00
D   1   1.00
      0.1510000              1.0000000
D   1   1.00
      0.0755000              1.0000000 
D   1   1.00
      0.0377500              1.0000000 
D   1   1.00
      0.0188750              1.0000000
F   1   1.00
      1.093000D+00           1.0000000
F   1   1.00
      0.3640000              1.0000000
****
$end

$complex_ccman
PROJ_CAP 3
ETA_STEP 10
NSTEPS 1
CAP_TYPE     1
CAP_X   2760
CAP_Y   2760
CAP_Z   4880
CAP_ETA 137
$end

--------------------------------------------------------------
 ----------------------------------------------------------------
             Standard Nuclear Orientation (Angstroms)
    I     Atom           X                Y                Z
 ----------------------------------------------------------------
    1      N       0.0000000000     0.0000000000     0.5450000000
    2      N       0.0000000000     0.0000000000    -0.5450000000
 ----------------------------------------------------------------
 Molecular Point Group                 D2h   NOp =  8
 Largest Abelian Subgroup              D2h   NOp =  8
 Nuclear Repulsion Energy =          23.78870030 hartrees
 There are        7 alpha and        7 beta electrons
 Requested basis set is non-standard
 There are 46 shells and 146 basis functions
 Total memory of 2000 MB is distributed as follows: 
   MEM_STATIC is set to 192 MB
   QALLOC/CCMAN JOB total memory use is  1808 MB
 Warning: actual memory use might exceed 2000 MB

 Total QAlloc Memory Limit   2000 MB
 Mega-Array Size       188 MB
 MEM_STATIC part       192 MB


                       Distance Matrix (Angstroms)
             N (  1)
   N (  2)  1.090000

 A cutoff of  1.0D-14 yielded   1081 shell pairs
 There are     10977 function pairs (     14937 Cartesian)
 Smallest overlap matrix eigenvalue = 3.69E-08
 Linear dependence detected in AO basis
 Tighter screening thresholds may be required for diffuse basis sets
 Use S2THRESH > 14 and THRESH = 14 in case of SCF convergence issues
 Number of orthogonalized atomic orbitals = 144
 Maximum deviation from orthogonality = 2.587E-11

 Scale SEOQF with 1.000000e-02/1.000000e-02/1.000000e-02

 Standard Electronic Orientation quadrupole field applied
 ================ Generating on-the-fly SAD Guess ================
 Attempting to make child job directory: /scratch/sbkmdl/NCCT2S5P2D_0p545_state7_FZC.560047068.saved//Frg1/
 Creating input file /scratch/sbkmdl/NCCT2S5P2D_0p545_state7_FZC.560047068.saved/Frg1.input
 using default PutDataFrgm: nothing
 calling putenv with: QCSCRATCH=/scratch/sbkmdl/NCCT2S5P2D_0p545_state7_FZC.560047068.saved/ 
 Spawning Job For Fragment 0
 Done Job For Fragment 0
 calling putenv with: QCSCRATCH=/scratch/sbkmdl 
 calling putenv with: QCTHREADS=16 
 Time for running child jobs:  CPU 0.01 s  wall 2.39 s
 ============= Method Specific SAD Guess Constructed =============
 Guess from on-the-fly superposition of atomic densities
 Warning: Energy on first SCF cycle will be non-variational

 -----------------------------------------------------------------------
  General SCF calculation program by
  Eric Jon Sundstrom, Paul Horn, Yuezhi Mao, Dmitri Zuev, Alec White,
  David Stuck, Shaama M.S., Shane Yost, Joonho Lee, David Small,
  Daniel Levine, Susi Lehtola, Hugh Burton, Evgeny Epifanovsky,
  Bang C. Huynh
 -----------------------------------------------------------------------
 Hartree-Fock
 using 16 threads for integral computing
 -------------------------------------------------------
 OpenMP Integral computing Module                
 Release: version 1.0, May 2013, Q-Chem Inc. Pittsburgh 
 -------------------------------------------------------
 A restricted SCF calculation will be
 performed using DIIS
 SCF converges when DIIS error is below 1.0e-08
 ---------------------------------------
  Cycle       Energy         DIIS error
 ---------------------------------------
    1    -109.1084058061      3.33e-02  
    2    -108.9726843085      2.23e-03  
    3    -108.9852587480      6.72e-04  
    4    -108.9861595249      1.46e-04  
    5    -108.9862372325      1.72e-05  
    6    -108.9862381196      1.99e-06  
    7    -108.9862381397      4.31e-07  
    8    -108.9862381407      4.55e-08  
    9    -108.9862381408      2.75e-09  Convergence criterion met
 ---------------------------------------
 SCF time:   CPU 17.71s  wall 2.00s 
 SCF   energy in the final basis set =     -108.9862381408
 Total energy in the final basis set =     -108.9862381408
 CAP matrix will be calculated and saved for subsequent use


 ------------------------------------------------------------------------------

   CCMAN2: suite of methods based on coupled cluster
           and equation of motion theories.

   Components:
   * libvmm-1.3-trunk
     by Evgeny Epifanovsky, Ilya Kaliman.
   * libtensor-2.5-trunk
     by Evgeny Epifanovsky, Michael Wormit, Dmitry Zuev, Sam Manzer, 
        Ilya Kaliman.
   * libcc-2.5-trunk
     by Evgeny Epifanovsky, Arik Landau, Tomasz Kus, Kirill Khistyaev, 
        Dmitry Zuev, Prashant Manohar, Xintian Feng, Anna Krylov, 
        Matthew Goldey, Alec White, Thomas Jagau, Kaushik Nanda, 
        Anastasia Gunina, Alexander Kunitsa, Joonho Lee.

   CCMAN original authors:
   Anna I. Krylov, C. David Sherrill, Steven R. Gwaltney,
   Edward F. C. Byrd (2000)
   Sergey V. Levchenko, Lyudmila V. Slipchenko, Tao Wang,
   Ana-Maria C. Cristian (2003)
   Piotr A. Pieniazek, C. Melania Oana, Evgeny Epifanovsky (2007)
   Prashant Manohar (2009)

 ------------------------------------------------------------------------------


 Allocating and initializing 1808MB of RAM...
 Calculation will run on 16 cores.


 Alpha MOs, Restricted
 -- Occupied --                  
-15.682 -15.679  -1.478  -0.777  -0.635  -0.618  -0.618
  1 Ag    1 B1u   2 Ag    2 B1u   3 Ag    1 B3u   1 B2u                        
 -- Virtual --                   
  0.007   0.009   0.012   0.012   0.016   0.016   0.018   0.029
  4 Ag    3 B1u   2 B3u   2 B2u   1 B2g   1 B3g   5 Ag    4 B1u                
  0.034   0.041   0.041   0.045   0.045   0.052   0.053   0.053
  6 Ag    3 B3u   3 B2u   2 B2g   2 B3g   7 Ag    8 Ag    1 B1g                
  0.065   0.072   0.072   0.072   0.073   0.073   0.087   0.089
  5 B1u   1 Au    6 B1u   7 B1u   4 B3u   4 B2u   9 Ag    3 B2g                
  0.089   0.104   0.104   0.119   0.128   0.133   0.133   0.154
  3 B3g   5 B3u   5 B2u  10 Ag    8 B1u   4 B2g   4 B3g  11 Ag                 
  0.155   0.155   0.169   0.169   0.192   0.193   0.193   0.198
 12 Ag    2 B1g   5 B2g   5 B3g   9 B1u   2 Au   10 B1u   6 B3u                
  0.198   0.209   0.227   0.227   0.243   0.254   0.254   0.285
  6 B2u  13 Ag    6 B2g   6 B3g  11 B1u   7 B3u   7 B2u  14 Ag                 
  0.330   0.333   0.333   0.348   0.348   0.416   0.427   0.427
 15 Ag    7 B2g   7 B3g  16 Ag    3 B1g  12 B1u   3 Au   13 B1u                
  0.448   0.448   0.465   0.530   0.533   0.533   0.661   0.714
  8 B3u   8 B2u  14 B1u  17 Ag    8 B2g   8 B3g  18 Ag   19 Ag                 
  0.714   0.727   0.727   0.781   0.879   0.879   0.908   0.911
  4 B1g   9 B3u   9 B2u  15 B1u   4 Au   16 B1u  17 B1u   9 B2g                
  0.911   1.002   1.002   1.042   1.099   1.099   1.255   1.372
  9 B3g  10 B3u  10 B2u  20 Ag   10 B2g  10 B3g  18 B1u  11 B2u                
  1.372   1.475   1.578   1.578   1.657   1.657   1.722   1.722
 11 B3u  21 Ag   22 Ag    5 B1g  12 B3u  12 B2u  11 B3g  11 B2g                
  1.750   1.750   1.804   1.811   1.811   1.836   1.961   1.961
  6 B1g  23 Ag   24 Ag   19 B1u   5 Au   20 B1u  12 B2g  12 B3g                
  2.083   2.201   2.201   2.332   2.332   2.475   2.475   2.820
 21 B1u  13 B3u  13 B2u  22 B1u   6 Au   13 B2g  13 B3g  23 B1u                
  2.987   3.464   3.464   4.069   4.452   4.452   4.463   4.463
 25 Ag   14 B3u  14 B2u  26 Ag   14 B2g  14 B3g   7 B1g  27 Ag                 
  4.562   4.562   4.657   4.657   4.710   4.759   5.049   5.049
 15 B3u  15 B2u  16 B3u  16 B2u  24 B1u  28 Ag   15 B2g  15 B3g                
  5.218   5.218   5.269   5.269   5.311   5.440   5.440   5.699
  8 B1g  29 Ag    7 Au   25 B1u  26 B1u  16 B2g  16 B3g  17 B3u                
  5.699   5.791   5.791   6.804   6.821   6.957   6.957  12.393
 17 B2u  27 B1u   8 Au   30 Ag   28 B1u  17 B2g  17 B3g  31 Ag                 
 20.052
 29 B1u                                                                        

 Beta MOs, Restricted
 -- Occupied --                  
-15.682 -15.679  -1.478  -0.777  -0.635  -0.618  -0.618
  1 Ag    1 B1u   2 Ag    2 B1u   3 Ag    1 B3u   1 B2u                        
 -- Virtual --                   
  0.007   0.009   0.012   0.012   0.016   0.016   0.018   0.029
  4 Ag    3 B1u   2 B3u   2 B2u   1 B2g   1 B3g   5 Ag    4 B1u                
  0.034   0.041   0.041   0.045   0.045   0.052   0.053   0.053
  6 Ag    3 B3u   3 B2u   2 B2g   2 B3g   7 Ag    8 Ag    1 B1g                
  0.065   0.072   0.072   0.072   0.073   0.073   0.087   0.089
  5 B1u   1 Au    6 B1u   7 B1u   4 B3u   4 B2u   9 Ag    3 B2g                
  0.089   0.104   0.104   0.119   0.128   0.133   0.133   0.154
  3 B3g   5 B3u   5 B2u  10 Ag    8 B1u   4 B2g   4 B3g  11 Ag                 
  0.155   0.155   0.169   0.169   0.192   0.193   0.193   0.198
 12 Ag    2 B1g   5 B2g   5 B3g   9 B1u   2 Au   10 B1u   6 B3u                
  0.198   0.209   0.227   0.227   0.243   0.254   0.254   0.285
  6 B2u  13 Ag    6 B2g   6 B3g  11 B1u   7 B3u   7 B2u  14 Ag                 
  0.330   0.333   0.333   0.348   0.348   0.416   0.427   0.427
 15 Ag    7 B2g   7 B3g  16 Ag    3 B1g  12 B1u   3 Au   13 B1u                
  0.448   0.448   0.465   0.530   0.533   0.533   0.661   0.714
  8 B3u   8 B2u  14 B1u  17 Ag    8 B2g   8 B3g  18 Ag   19 Ag                 
  0.714   0.727   0.727   0.781   0.879   0.879   0.908   0.911
  4 B1g   9 B3u   9 B2u  15 B1u   4 Au   16 B1u  17 B1u   9 B2g                
  0.911   1.002   1.002   1.042   1.099   1.099   1.255   1.372
  9 B3g  10 B3u  10 B2u  20 Ag   10 B2g  10 B3g  18 B1u  11 B2u                
  1.372   1.475   1.578   1.578   1.657   1.657   1.722   1.722
 11 B3u  21 Ag   22 Ag    5 B1g  12 B3u  12 B2u  11 B3g  11 B2g                
  1.750   1.750   1.804   1.811   1.811   1.836   1.961   1.961
  6 B1g  23 Ag   24 Ag   19 B1u   5 Au   20 B1u  12 B2g  12 B3g                
  2.083   2.201   2.201   2.332   2.332   2.475   2.475   2.820
 21 B1u  13 B3u  13 B2u  22 B1u   6 Au   13 B2g  13 B3g  23 B1u                
  2.987   3.464   3.464   4.069   4.452   4.452   4.463   4.463
 25 Ag   14 B3u  14 B2u  26 Ag   14 B2g  14 B3g   7 B1g  27 Ag                 
  4.562   4.562   4.657   4.657   4.710   4.759   5.049   5.049
 15 B3u  15 B2u  16 B3u  16 B2u  24 B1u  28 Ag   15 B2g  15 B3g                
  5.218   5.218   5.269   5.269   5.311   5.440   5.440   5.699
  8 B1g  29 Ag    7 Au   25 B1u  26 B1u  16 B2g  16 B3g  17 B3u                
  5.699   5.791   5.791   6.804   6.821   6.957   6.957  12.393
 17 B2u  27 B1u   8 Au   30 Ag   28 B1u  17 B2g  17 B3g  31 Ag                 
 20.052
 29 B1u                                                                        

 Occupation and symmetry of molecular orbitals

 Point group: D2h (8 irreducible representations).

                           Ag   B1g  B2g  B3g  Au   B1u  B2u  B3u   All 
 ------------------------------------------------------------------------
 All molecular orbitals:
  - Alpha                  31   8    17   17   8    29   17   17    144 
  - Beta                   31   8    17   17   8    29   17   17    144 
 ------------------------------------------------------------------------
 Alpha orbitals:
  - Frozen occupied        0    0    0    0    0    0    0    0     0   
  - Active occupied        3    0    0    0    0    2    1    1     7   
  - Active virtual         28   8    17   17   8    27   16   16    137 
  - Frozen virtual         0    0    0    0    0    0    0    0     0   
 ------------------------------------------------------------------------
 Beta orbitals:
  - Frozen occupied        0    0    0    0    0    0    0    0     0   
  - Active occupied        3    0    0    0    0    2    1    1     7   
  - Active virtual         28   8    17   17   8    27   16   16    137 
  - Frozen virtual         0    0    0    0    0    0    0    0     0   
 ------------------------------------------------------------------------

 Import integrals:   CPU 0.00 s  wall 0.00 s

 Import integrals:   CPU 33.82 s  wall 2.90 s

 MP2 amplitudes:   CPU 2.60 s  wall 2.09 s

Running a double precision version
           CCSD T amplitudes will be solved using DIIS.

           Start     Size      MaxIter   EConv     TConv     
           3         7         100       1.00e-06  1.00e-04  
 ------------------------------------------------------------------------------
           Energy (a.u.)   Ediff      Tdiff       Comment
 ------------------------------------------------------------------------------
          -109.39548921                           
     1    -109.37799262   1.75e-02   5.57e-01     
     2    -109.39357938   1.56e-02   8.63e-02     
     3    -109.39198107   1.60e-03   3.15e-02     
     4    -109.39341263   1.43e-03   8.24e-03     Switched to DIIS steps.
     5    -109.39375709   3.44e-04   7.30e-03     
     6    -109.39376261   5.52e-06   1.11e-03     
     7    -109.39376292   3.16e-07   1.89e-04     
     8    -109.39376353   6.07e-07   5.85e-05     
 ------------------------------------------------------------------------------
          -109.39376353                           CCSD T converged.

End of double precision
 SCF energy                 = -108.98623814
 MP2 energy                 = -109.39548921
 CCSD correlation energy    =   -0.40752539
 CCSD total energy          = -109.39376353

 CCSD  T1^2 = 0.0034  T2^2 = 0.1214  Leading amplitudes:

 Amplitude    Orbitals with energies
 -0.0160       1 (B2u) A                 ->    10 (B2u) A                  
              -0.6176                          1.0023                      
 -0.0160       1 (B2u) B                 ->    10 (B2u) B                  
              -0.6176                          1.0023                      
  0.0160       1 (B3u) A                 ->    10 (B3u) A                  
              -0.6176                          1.0023                      
  0.0160       1 (B3u) B                 ->    10 (B3u) B                  
              -0.6176                          1.0023                      

 Amplitude    Orbitals with energies
 -0.0325       1 (B2u) A     1 (B2u) B   ->    4 (B3g) A     4 (B3g) B    
              -0.6176       -0.6176            0.1332        0.1332       
  0.0325       1 (B2u) A     1 (B2u) B   ->    4 (B3g) B     4 (B3g) A    
              -0.6176       -0.6176            0.1332        0.1332       
  0.0325       1 (B2u) B     1 (B2u) A   ->    4 (B3g) A     4 (B3g) B    
              -0.6176       -0.6176            0.1332        0.1332       
 -0.0325       1 (B2u) B     1 (B2u) A   ->    4 (B3g) B     4 (B3g) A    
              -0.6176       -0.6176            0.1332        0.1332       
 -0.0325       1 (B3u) A     1 (B3u) B   ->    4 (B2g) A     4 (B2g) B    
              -0.6176       -0.6176            0.1332        0.1332       
  0.0325       1 (B3u) A     1 (B3u) B   ->    4 (B2g) B     4 (B2g) A    
              -0.6176       -0.6176            0.1332        0.1332       
  0.0325       1 (B3u) B     1 (B3u) A   ->    4 (B2g) A     4 (B2g) B    
              -0.6176       -0.6176            0.1332        0.1332       
 -0.0325       1 (B3u) B     1 (B3u) A   ->    4 (B2g) B     4 (B2g) A    
              -0.6176       -0.6176            0.1332        0.1332       

 Computing CCSD intermediates for later calculations in double precision
 Finished.

Running a double precision version
           CCSD Lambda amplitudes will be solved using DIIS.
           Start     Size      MaxIter   EConv     LConv     
           3         7         100       1.00e-06  1.00e-04  
 ------------------------------------------------------------------------------
            Enorm      Ldiff       Comment
 ------------------------------------------------------------------------------
     1     3.18e-02   2.48e-02     
     2     5.83e-03   1.74e-03     
     3     1.83e-03   8.78e-04     
     4     5.65e-04   3.79e-04     Switched to DIIS steps.
     5     1.79e-04   1.15e-04     
     6     4.86e-05   4.14e-05     
     7     1.42e-05   7.71e-06     
     8     3.22e-06   2.30e-06     
     9     9.19e-07   2.53e-07     
 ------------------------------------------------------------------------------
                                   CCSD Lambda converged.

 CCSD calculation:   CPU 148.35 s  wall 24.83 s

 EOMEE-CCSD calculation:   CPU 5.09 s  wall 2.88 s

        Solving for EOMEA-CCSD/MP2 B2g transitions.

Running a double precision version
      EOMEA-CCSD/MP2 right amplitudes will be solved using Davidson.
        Amplitudes will be solved using standard  algorithm.
     Hard-coded thresholds: 
     LinDepThresh=1.00e-15  NormThresh=1.00e-06  ReorthogonThresh=1.00e-02

      Roots     MaxVec    MaxIter   Precond   Conv      Shift    
      7         120       60        1         1.00e-05  0.00e+00  
 ------------------------------------------------------------------------------
      Iter ConvRoots NVecs ResNorm^2 Current eigenvalues (eV)
 ------------------------------------------------------------------------------
      0    0      7     5.06e-02   0.4403   1.2177   2.4642   3.9016   5.1629   6.6019   9.3624   
      1    0      14    3.53e-02   0.4391   1.2088   2.4102   3.6308   4.6320   6.1725   9.0425   
      2    1      21    1.51e-03   0.4385*  1.2013   2.2788   3.0067   4.2644   5.9344   8.7600   
      3    2      27    1.04e-04   0.4385*  1.2009*  2.2616   2.9623   4.2495   5.9203   8.7301   
      4    4      32    1.39e-05   0.4385*  1.2008*  2.2592*  2.9563   4.2473*  5.9177   8.7222   
      5    6      35    2.31e-06   0.4385*  1.2008*  2.2591*  2.9560*  4.2472*  5.9175*  8.7212   
Found complex roots...
      6    7      36    6.19e-07   0.4385*  1.2008*  2.2591*  2.9560*  4.2472*  5.9175*  8.7209*  

     Davidson procedure converged

 EOMEA transition 1/B2g
 Total energy = -109.37765067 a.u.  Excitation energy = 0.4385 eV.
 R1^2 = 0.9999  R2^2 = 0.0001  Res^2 = 3.41e-07
 Conv-d = yes

 Amplitude    Transitions between orbitals
  0.9999       infty       ->    1 (B2g) B                  
  0.0051       infty       ->    2 (B2g) B                  
 -0.0033       infty       ->    3 (B2g) B                  
  0.0033       infty       ->    4 (B2g) B                  

              Summary of significant orbitals:

               Number  Type             Irrep      Energy
               12      Vir  Beta        1 (B2g)      0.0162
               19      Vir  Beta        2 (B2g)      0.0447
               31      Vir  Beta        3 (B2g)      0.0893
               37      Vir  Beta        4 (B2g)      0.1332


 EOMEA transition 2/B2g
 Total energy = -109.34963478 a.u.  Excitation energy = 1.2008 eV.
 R1^2 = 0.9992  R2^2 = 0.0008  Res^2 = 2.78e-08
 Conv-d = yes

 Amplitude    Transitions between orbitals
  0.9986       infty       ->    2 (B2g) B                  
 -0.0285       infty       ->    3 (B2g) B                  
  0.0283       infty       ->    4 (B2g) B                  
  0.0169       infty       ->    5 (B2g) B                  

              Summary of significant orbitals:

               Number  Type             Irrep      Energy
               19      Vir  Beta        2 (B2g)      0.0447
               31      Vir  Beta        3 (B2g)      0.0893
               37      Vir  Beta        4 (B2g)      0.1332
               42      Vir  Beta        5 (B2g)      0.1689


 EOMEA transition 3/B2g
 Total energy = -109.31074178 a.u.  Excitation energy = 2.2591 eV.
 R1^2 = 0.9828  R2^2 = 0.0172  Res^2 = 1.69e-07
 Conv-d = yes

 Amplitude    Transitions between orbitals
 -0.9286       infty       ->    3 (B2g) B                  
  0.2944       infty       ->    4 (B2g) B                  
  0.1637       infty       ->    5 (B2g) B                  
 -0.0629       infty       ->    6 (B2g) B                  

              Summary of significant orbitals:

               Number  Type             Irrep      Energy
               31      Vir  Beta        3 (B2g)      0.0893
               37      Vir  Beta        4 (B2g)      0.1332
               42      Vir  Beta        5 (B2g)      0.1689
               50      Vir  Beta        6 (B2g)      0.2267


 EOMEA transition 4/B2g
 Total energy = -109.28513168 a.u.  Excitation energy = 2.9560 eV.
 R1^2 = 0.9659  R2^2 = 0.0341  Res^2 = 3.77e-07
 Conv-d = yes

 Amplitude    Transitions between orbitals
 -0.8353       infty       ->    4 (B2g) B                  
 -0.3557       infty       ->    3 (B2g) B                  
 -0.3470       infty       ->    5 (B2g) B                  
  0.1255       infty       ->    6 (B2g) B                  

              Summary of significant orbitals:

               Number  Type             Irrep      Energy
               31      Vir  Beta        3 (B2g)      0.0893
               37      Vir  Beta        4 (B2g)      0.1332
               42      Vir  Beta        5 (B2g)      0.1689
               50      Vir  Beta        6 (B2g)      0.2267


 EOMEA transition 5/B2g
 Total energy = -109.23768329 a.u.  Excitation energy = 4.2472 eV.
 R1^2 = 0.9898  R2^2 = 0.0102  Res^2 = 1.67e-07
 Conv-d = yes

 Amplitude    Transitions between orbitals
 -0.8888       infty       ->    5 (B2g) B                  
  0.4248       infty       ->    4 (B2g) B                  
  0.1211       infty       ->    6 (B2g) B                  
 -0.0487       infty       ->    7 (B2g) B                  

              Summary of significant orbitals:

               Number  Type             Irrep      Energy
               37      Vir  Beta        4 (B2g)      0.1332
               42      Vir  Beta        5 (B2g)      0.1689
               50      Vir  Beta        6 (B2g)      0.2267
               57      Vir  Beta        7 (B2g)      0.3333


 EOMEA transition 6/B2g
 Total energy = -109.17629961 a.u.  Excitation energy = 5.9175 eV.
 R1^2 = 0.9904  R2^2 = 0.0096  Res^2 = 2.18e-07
 Conv-d = yes

 Amplitude    Transitions between orbitals
  0.9691       infty       ->    6 (B2g) B                  
  0.1900       infty       ->    5 (B2g) B                  
  0.0923       infty       ->    4 (B2g) B                  
 -0.0724       infty       ->    7 (B2g) B                  

              Summary of significant orbitals:

               Number  Type             Irrep      Energy
               37      Vir  Beta        4 (B2g)      0.1332
               42      Vir  Beta        5 (B2g)      0.1689
               50      Vir  Beta        6 (B2g)      0.2267
               57      Vir  Beta        7 (B2g)      0.3333


 EOMEA transition 7/B2g
 Total energy = -109.07327714 a.u.  Excitation energy = 8.7209 eV.
 R1^2 = 0.9824  R2^2 = 0.0176  Res^2 = 3.03e-06
 Conv-d = yes

 Amplitude    Transitions between orbitals
  0.9786       infty       ->    7 (B2g) B                  
  0.1059       infty       ->    6 (B2g) B                  
 -0.0753       infty       ->    5 (B2g) B                  
 -0.0713       infty       ->    8 (B2g) B                  

              Summary of significant orbitals:

               Number  Type             Irrep      Energy
               42      Vir  Beta        5 (B2g)      0.1689
               50      Vir  Beta        6 (B2g)      0.2267
               57      Vir  Beta        7 (B2g)      0.3333
               68      Vir  Beta        8 (B2g)      0.5331


 EEs and amplitudes of EOMEA can not be exported to fchk file
Running a double precision version
      EOMEA-CCSD/MP2 left amplitudes will be solved using Davidson.
        Amplitudes will be solved using MOM  algorithm.
     Hard-coded thresholds: 
     LinDepThresh=1.00e-15  NormThresh=1.00e-06  ReorthogonThresh=1.00e-02

      Roots     MaxVec    MaxIter   Precond   Conv      Shift    
      7         120       60        1         1.00e-05  0.00e+00  
 ------------------------------------------------------------------------------
      Iter ConvRoots NVecs ResNorm^2 Current eigenvalues (eV)
 ------------------------------------------------------------------------------
      0    0      7     1.22e-03   0.4385   1.2008   2.2591   2.9560   4.2472   5.9175   8.7209   
      1    0      14    8.94e-04   0.4385   1.2008   2.2591   2.9560   4.2472   5.9175   8.7208   
      2    2      21    6.67e-05   0.4385*  1.2008*  2.2591   2.9560   4.2472   5.9175   8.7208   
      3    7      26    2.79e-06   0.4385*  1.2008*  2.2591*  2.9560*  4.2472*  5.9175*  8.7208*  

     Davidson procedure converged

 Excited state properties for  EOMEA-CCSD transition 1/B2g
 Dipole moment (a.u.): 0.000000 (X 0.000000, Y 0.000000, Z 0.000000)
 R-squared (a.u.): 461.646579 (XX 186.765345, YY 67.362737, ZZ 207.518496)
 Gauge origin (a.u.): (0.000000, 0.000000, 0.000000)
 Angular momentum (a.u.) against gauge origin: 
 (X 0.000000i, Y 0.000000i, Z 0.000000i)
 Traces of the OPDMs: Tr(AA) 7.000000, Tr(BB) 8.000000

 Excited state properties for  EOMEA-CCSD transition 2/B2g
 Dipole moment (a.u.): 0.000000 (X 0.000000, Y 0.000000, Z 0.000000)
 R-squared (a.u.): 319.809200 (XX 132.885162, YY 49.412173, ZZ 137.511866)
 Gauge origin (a.u.): (0.000000, 0.000000, 0.000000)
 Angular momentum (a.u.) against gauge origin: 
 (X 0.000000i, Y 0.000000i, Z 0.000000i)
 Traces of the OPDMs: Tr(AA) 7.000000, Tr(BB) 8.000000

 Excited state properties for  EOMEA-CCSD transition 3/B2g
 Dipole moment (a.u.): 0.000000 (X 0.000000, Y 0.000000, Z 0.000000)
 R-squared (a.u.): 183.003259 (XX 70.414435, YY 28.801948, ZZ 83.786877)
 Gauge origin (a.u.): (0.000000, 0.000000, 0.000000)
 Angular momentum (a.u.) against gauge origin: 
 (X 0.000000i, Y 0.000000i, Z 0.000000i)
 Traces of the OPDMs: Tr(AA) 7.000000, Tr(BB) 8.000000

 Excited state properties for  EOMEA-CCSD transition 4/B2g
 Dipole moment (a.u.): 0.000000 (X 0.000000, Y 0.000000, Z 0.000000)
 R-squared (a.u.): 150.430207 (XX 52.647823, YY 23.096967, ZZ 74.685417)
 Gauge origin (a.u.): (0.000000, 0.000000, 0.000000)
 Angular momentum (a.u.) against gauge origin: 
 (X 0.000000i, Y 0.000000i, Z 0.000000i)
 Traces of the OPDMs: Tr(AA) 7.000000, Tr(BB) 8.000000

 Excited state properties for  EOMEA-CCSD transition 5/B2g
 Dipole moment (a.u.): 0.000000 (X 0.000000, Y 0.000000, Z 0.000000)
 R-squared (a.u.): 159.112302 (XX 56.281900, YY 23.991272, ZZ 78.839130)
 Gauge origin (a.u.): (0.000000, 0.000000, 0.000000)
 Angular momentum (a.u.) against gauge origin: 
 (X 0.000000i, Y 0.000000i, Z 0.000000i)
 Traces of the OPDMs: Tr(AA) 7.000000, Tr(BB) 8.000000

 Excited state properties for  EOMEA-CCSD transition 6/B2g
 Dipole moment (a.u.): 0.000000 (X 0.000000, Y 0.000000, Z 0.000000)
 R-squared (a.u.): 130.727753 (XX 45.771270, YY 20.470208, ZZ 64.486275)
 Gauge origin (a.u.): (0.000000, 0.000000, 0.000000)
 Angular momentum (a.u.) against gauge origin: 
 (X 0.000000i, Y 0.000000i, Z 0.000000i)
 Traces of the OPDMs: Tr(AA) 7.000000, Tr(BB) 8.000000

 Excited state properties for  EOMEA-CCSD transition 7/B2g
 Dipole moment (a.u.): 0.000000 (X 0.000000, Y 0.000000, Z 0.000000)
 R-squared (a.u.): 122.642187 (XX 42.016896, YY 19.258696, ZZ 61.366595)
 Gauge origin (a.u.): (0.000000, 0.000000, 0.000000)
 Angular momentum (a.u.) against gauge origin: 
 (X 0.000000i, Y 0.000000i, Z 0.000000i)
 Traces of the OPDMs: Tr(AA) 7.000000, Tr(BB) 8.000000

Running a double precision version
           EOM amplitude response will be solved using DIIS.
           Start     Size      MaxIter   EConv     ZConv     
           3         7         100       1.00e-06  1.00e-06  
 ------------------------------------------------------------------------------
            Enorm      Zdiff       Comment
 ------------------------------------------------------------------------------
     1     5.51e-02   2.71e-02     
     2     2.09e-02   1.29e-02     
     3     1.11e-02   5.14e-03     
     4     3.33e-03   4.99e-03     Switched to DIIS steps.
     5     1.34e-03   1.06e-03     
     6     3.01e-04   3.39e-04     
     7     7.00e-05   2.16e-05     
     8     1.61e-05   3.10e-06     
     9     4.35e-06   2.63e-07     
    10     1.09e-06   5.25e-08     
    11     3.31e-07   2.58e-08     
 ------------------------------------------------------------------------------
                                   Amplitude response converged.

           Orbital response amplitudes will be solved using DIIS.
           Start     Size      MaxIter   EConv     LConv     
           3         7         100       1.00e-06  1.00e-06  
 ------------------------------------------------------------------------------
            Enorm      Ldiff       Comment
 ------------------------------------------------------------------------------
     1     4.48e-02   5.11e-03     
     2     1.90e-02   1.35e-02     
     3     8.75e-03   4.85e-03     
     4     5.52e-04   2.00e-03     Switched to DIIS steps.
     5     1.05e-04   6.98e-05     
     6     3.05e-06   8.04e-06     
     7     4.18e-07   4.96e-07     
 ------------------------------------------------------------------------------
                                   Orbital response converged.

Running a double precision version
           EOM amplitude response will be solved using DIIS.
           Start     Size      MaxIter   EConv     ZConv     
           3         7         100       1.00e-06  1.00e-06  
 ------------------------------------------------------------------------------
            Enorm      Zdiff       Comment
 ------------------------------------------------------------------------------
     1     5.50e-02   2.71e-02     
     2     2.08e-02   1.29e-02     
     3     1.11e-02   5.12e-03     
     4     3.32e-03   4.97e-03     Switched to DIIS steps.
     5     1.34e-03   1.05e-03     
     6     3.01e-04   3.38e-04     
     7     6.99e-05   2.16e-05     
     8     1.61e-05   3.09e-06     
     9     4.34e-06   2.66e-07     
    10     1.09e-06   5.33e-08     
    11     3.31e-07   2.60e-08     
 ------------------------------------------------------------------------------
                                   Amplitude response converged.

           Orbital response amplitudes will be solved using DIIS.
           Start     Size      MaxIter   EConv     LConv     
           3         7         100       1.00e-06  1.00e-06  
 ------------------------------------------------------------------------------
            Enorm      Ldiff       Comment
 ------------------------------------------------------------------------------
     1     4.50e-02   4.91e-03     
     2     1.91e-02   1.38e-02     
     3     8.84e-03   5.00e-03     
     4     5.49e-04   2.06e-03     Switched to DIIS steps.
     5     1.04e-04   6.98e-05     
     6     3.08e-06   7.66e-06     
     7     4.49e-07   5.03e-07     
 ------------------------------------------------------------------------------
                                   Orbital response converged.

Running a double precision version
           EOM amplitude response will be solved using DIIS.
           Start     Size      MaxIter   EConv     ZConv     
           3         7         100       1.00e-06  1.00e-06  
 ------------------------------------------------------------------------------
            Enorm      Zdiff       Comment
 ------------------------------------------------------------------------------
     1     5.30e-02   2.80e-02     
     2     1.97e-02   1.22e-02     
     3     1.03e-02   4.76e-03     
     4     3.04e-03   4.44e-03     Switched to DIIS steps.
     5     1.22e-03   9.13e-04     
     6     2.95e-04   2.87e-04     
     7     6.97e-05   2.08e-05     
     8     1.60e-05   2.93e-06     
     9     4.34e-06   3.46e-07     
    10     1.09e-06   8.08e-08     
    11     3.34e-07   2.97e-08     
 ------------------------------------------------------------------------------
                                   Amplitude response converged.

           Orbital response amplitudes will be solved using DIIS.
           Start     Size      MaxIter   EConv     LConv     
           3         7         100       1.00e-06  1.00e-06  
 ------------------------------------------------------------------------------
            Enorm      Ldiff       Comment
 ------------------------------------------------------------------------------
     1     5.57e-02   9.27e-04     
     2     2.52e-02   2.05e-02     
     3     1.25e-02   8.79e-03     
     4     4.76e-04   3.47e-03     Switched to DIIS steps.
     5     8.91e-05   5.23e-05     
     6     7.68e-06   4.63e-07     
     7     2.21e-06   8.29e-07     
     8     3.82e-07   2.46e-08     
 ------------------------------------------------------------------------------
                                   Orbital response converged.

Running a double precision version
           EOM amplitude response will be solved using DIIS.
           Start     Size      MaxIter   EConv     ZConv     
           3         7         100       1.00e-06  1.00e-06  
 ------------------------------------------------------------------------------
            Enorm      Zdiff       Comment
 ------------------------------------------------------------------------------
     1     5.18e-02   2.92e-02     
     2     1.92e-02   1.20e-02     
     3     9.85e-03   4.70e-03     
     4     2.78e-03   4.29e-03     Switched to DIIS steps.
     5     1.10e-03   8.15e-04     
     6     2.87e-04   2.45e-04     
     7     7.04e-05   1.97e-05     
     8     1.65e-05   2.60e-06     
     9     4.45e-06   3.98e-07     
    10     1.12e-06   1.21e-07     
    11     3.43e-07   2.95e-08     
 ------------------------------------------------------------------------------
                                   Amplitude response converged.

           Orbital response amplitudes will be solved using DIIS.
           Start     Size      MaxIter   EConv     LConv     
           3         7         100       1.00e-06  1.00e-06  
 ------------------------------------------------------------------------------
            Enorm      Ldiff       Comment
 ------------------------------------------------------------------------------
     1     7.25e-02   7.79e-03     
     2     3.35e-02   2.72e-02     
     3     1.72e-02   1.23e-02     
     4     5.19e-04   4.80e-03     Switched to DIIS steps.
     5     1.47e-04   4.18e-05     
     6     2.88e-05   4.41e-06     
     7     4.32e-06   3.65e-06     
     8     6.47e-07   1.38e-08     
 ------------------------------------------------------------------------------
                                   Orbital response converged.

Running a double precision version
           EOM amplitude response will be solved using DIIS.
           Start     Size      MaxIter   EConv     ZConv     
           3         7         100       1.00e-06  1.00e-06  
 ------------------------------------------------------------------------------
            Enorm      Zdiff       Comment
 ------------------------------------------------------------------------------
     1     5.39e-02   2.75e-02     
     2     2.02e-02   1.25e-02     
     3     1.06e-02   4.92e-03     
     4     3.20e-03   4.68e-03     Switched to DIIS steps.
     5     1.28e-03   9.89e-04     
     6     2.97e-04   3.14e-04     
     7     6.88e-05   2.13e-05     
     8     1.59e-05   3.01e-06     
     9     4.32e-06   3.09e-07     
    10     1.06e-06   6.31e-08     
    11     3.24e-07   2.75e-08     
 ------------------------------------------------------------------------------
                                   Amplitude response converged.

           Orbital response amplitudes will be solved using DIIS.
           Start     Size      MaxIter   EConv     LConv     
           3         7         100       1.00e-06  1.00e-06  
 ------------------------------------------------------------------------------
            Enorm      Ldiff       Comment
 ------------------------------------------------------------------------------
     1     5.09e-02   1.65e-03     
     2     2.27e-02   1.82e-02     
     3     1.10e-02   7.45e-03     
     4     5.18e-04   2.97e-03     Switched to DIIS steps.
     5     1.12e-04   6.70e-05     
     6     1.85e-05   6.24e-06     
     7     3.93e-06   1.91e-06     
     8     3.18e-07   5.31e-09     
 ------------------------------------------------------------------------------
                                   Orbital response converged.

Running a double precision version
           EOM amplitude response will be solved using DIIS.
           Start     Size      MaxIter   EConv     ZConv     
           3         7         100       1.00e-06  1.00e-06  
 ------------------------------------------------------------------------------
            Enorm      Zdiff       Comment
 ------------------------------------------------------------------------------
     1     5.42e-02   2.74e-02     
     2     2.04e-02   1.26e-02     
     3     1.08e-02   4.99e-03     
     4     3.24e-03   4.78e-03     Switched to DIIS steps.
     5     1.30e-03   1.01e-03     
     6     2.97e-04   3.21e-04     
     7     6.90e-05   2.13e-05     
     8     1.60e-05   3.04e-06     
     9     4.30e-06   2.97e-07     
    10     1.06e-06   5.98e-08     
    11     3.24e-07   2.73e-08     
 ------------------------------------------------------------------------------
                                   Amplitude response converged.

           Orbital response amplitudes will be solved using DIIS.
           Start     Size      MaxIter   EConv     LConv     
           3         7         100       1.00e-06  1.00e-06  
 ------------------------------------------------------------------------------
            Enorm      Ldiff       Comment
 ------------------------------------------------------------------------------
     1     4.90e-02   2.98e-03     
     2     2.15e-02   1.64e-02     
     3     1.03e-02   6.45e-03     
     4     5.44e-04   2.60e-03     Switched to DIIS steps.
     5     1.21e-04   7.49e-05     
     6     1.90e-05   8.99e-06     
     7     4.02e-06   1.83e-06     
     8     3.05e-07   9.33e-10     
 ------------------------------------------------------------------------------
                                   Orbital response converged.

Running a double precision version
           EOM amplitude response will be solved using DIIS.
           Start     Size      MaxIter   EConv     ZConv     
           3         7         100       1.00e-06  1.00e-06  
 ------------------------------------------------------------------------------
            Enorm      Zdiff       Comment
 ------------------------------------------------------------------------------
     1     5.40e-02   2.74e-02     
     2     2.05e-02   1.26e-02     
     3     1.08e-02   5.03e-03     
     4     3.25e-03   4.85e-03     Switched to DIIS steps.
     5     1.30e-03   1.03e-03     
     6     2.97e-04   3.23e-04     
     7     6.90e-05   2.15e-05     
     8     1.59e-05   3.03e-06     
     9     4.28e-06   3.12e-07     
    10     1.06e-06   6.47e-08     
    11     3.22e-07   2.73e-08     
 ------------------------------------------------------------------------------
                                   Amplitude response converged.

           Orbital response amplitudes will be solved using DIIS.
           Start     Size      MaxIter   EConv     LConv     
           3         7         100       1.00e-06  1.00e-06  
 ------------------------------------------------------------------------------
            Enorm      Ldiff       Comment
 ------------------------------------------------------------------------------
     1     5.02e-02   2.33e-03     
     2     2.20e-02   1.70e-02     
     3     1.06e-02   6.89e-03     
     4     5.60e-04   2.73e-03     Switched to DIIS steps.
     5     1.51e-04   8.01e-05     
     6     3.06e-05   1.40e-05     
     7     3.93e-06   4.20e-06     
     8     3.84e-07   5.97e-09     
 ------------------------------------------------------------------------------
                                   Orbital response converged.

 EOMEA-CCSD calculation:   CPU 2515.61 s  wall 1083.23 s

 Adding separable TPDM in double precision
 Transferring MO TPDM to AO TPDM
 Transferring g2_o1o1o1o1
 Transferring g2_o1o1o1v1
 Transferring g2_o1o1v1v1
 Transferring g2_o1v1o1v1
 Transferring g2_o1v1v1v1
 Transferring g2_v1v1v1v1
 Computing TPDM gradient
 --------------------------------------------------------
 2e gradient
  Atom          X               Y               Z
 --------------------------------------------------------
    1         -0.000000       -0.000000      -14.126447  
    2          0.000000        0.000000       14.126447  
 --------------------------------------------------------
 --------------------------------------------------------
 Final gradient
  Atom          X               Y               Z
 --------------------------------------------------------
    1         -0.000000       -0.000000      -14.126447  
    2          0.000000        0.000000       14.126447  
 --------------------------------------------------------
 Analytic gradient from two-electron contribution:   CPU 875.64 s  wall 90.02 s

 Memory assigned for libqints: 128 MB
 --------------------------------------------------------
 Nuclear repulsion gradient
  Atom          X               Y               Z
 --------------------------------------------------------
    1          0.000000        0.000000      -11.549026  
    2          0.000000        0.000000       11.549026  
 --------------------------------------------------------
 --------------------------------------------------------
 1e gradient
  Atom          X               Y               Z
 --------------------------------------------------------
    1          0.000000        0.000000       25.667312  
    2         -0.000000       -0.000000      -25.667312  
 --------------------------------------------------------
 Adding separable TPDM in double precision
 Transferring MO TPDM to AO TPDM
 Transferring g2_o1o1o1o1
 Transferring g2_o1o1o1v1
 Transferring g2_o1o1v1v1
 Transferring g2_o1v1o1v1
 Transferring g2_o1v1v1v1
 Transferring g2_v1v1v1v1
 Computing TPDM gradient
 --------------------------------------------------------
 2e gradient
  Atom          X               Y               Z
 --------------------------------------------------------
    1         -0.000000       -0.000000       -2.138168  
    2          0.000000        0.000000        2.138168  
 --------------------------------------------------------
 --------------------------------------------------------
 Final gradient
  Atom          X               Y               Z
 --------------------------------------------------------
    1         -0.000000       -0.000000       -2.138168  
    2          0.000000        0.000000        2.138168  
 --------------------------------------------------------
 Analytic gradient from two-electron contribution:   CPU 899.37 s  wall 98.74 s

 Memory assigned for libqints: 128 MB
 --------------------------------------------------------
 Nuclear repulsion gradient
  Atom          X               Y               Z
 --------------------------------------------------------
    1          0.000000        0.000000      -11.549026  
    2          0.000000        0.000000       11.549026  
 --------------------------------------------------------
 --------------------------------------------------------
 1e gradient
  Atom          X               Y               Z
 --------------------------------------------------------
    1          0.000000        0.000000       13.678378  
    2         -0.000000       -0.000000      -13.678378  
 --------------------------------------------------------
 Adding separable TPDM in double precision
 Transferring MO TPDM to AO TPDM
 Transferring g2_o1o1o1o1
 Transferring g2_o1o1o1v1
 Transferring g2_o1o1v1v1
 Transferring g2_o1v1o1v1
 Transferring g2_o1v1v1v1
 Transferring g2_v1v1v1v1
 Computing TPDM gradient
 --------------------------------------------------------
 2e gradient
  Atom          X               Y               Z
 --------------------------------------------------------
    1          0.000000       -0.000000      -28.605871  
    2         -0.000000        0.000000       28.605871  
 --------------------------------------------------------
 --------------------------------------------------------
 Final gradient
  Atom          X               Y               Z
 --------------------------------------------------------
    1          0.000000       -0.000000      -28.605871  
    2         -0.000000        0.000000       28.605871  
 --------------------------------------------------------
 Analytic gradient from two-electron contribution:   CPU 884.28 s  wall 93.65 s

 Memory assigned for libqints: 128 MB
 --------------------------------------------------------
 Nuclear repulsion gradient
  Atom          X               Y               Z
 --------------------------------------------------------
    1          0.000000        0.000000      -11.549026  
    2          0.000000        0.000000       11.549026  
 --------------------------------------------------------
 --------------------------------------------------------
 1e gradient
  Atom          X               Y               Z
 --------------------------------------------------------
    1         -0.000000        0.000000       40.086765  
    2          0.000000       -0.000000      -40.086765  
 --------------------------------------------------------
 Adding separable TPDM in double precision
 Transferring MO TPDM to AO TPDM
 Transferring g2_o1o1o1o1
 Transferring g2_o1o1o1v1
 Transferring g2_o1o1v1v1
 Transferring g2_o1v1o1v1
 Transferring g2_o1v1v1v1
 Transferring g2_v1v1v1v1
 Computing TPDM gradient
 --------------------------------------------------------
 2e gradient
  Atom          X               Y               Z
 --------------------------------------------------------
    1         -0.000000       -0.000000      -13.475336  
    2          0.000000        0.000000       13.475336  
 --------------------------------------------------------
 --------------------------------------------------------
 Final gradient
  Atom          X               Y               Z
 --------------------------------------------------------
    1         -0.000000       -0.000000      -13.475336  
    2          0.000000        0.000000       13.475336  
 --------------------------------------------------------
 Analytic gradient from two-electron contribution:   CPU 885.49 s  wall 96.41 s

 Memory assigned for libqints: 128 MB
 --------------------------------------------------------
 Nuclear repulsion gradient
  Atom          X               Y               Z
 --------------------------------------------------------
    1          0.000000        0.000000      -11.549026  
    2          0.000000        0.000000       11.549026  
 --------------------------------------------------------
 --------------------------------------------------------
 1e gradient
  Atom          X               Y               Z
 --------------------------------------------------------
    1         -0.000000        0.000000       24.892464  
    2         -0.000000       -0.000000      -24.892464  
 --------------------------------------------------------
 Adding separable TPDM in double precision
 Transferring MO TPDM to AO TPDM
 Transferring g2_o1o1o1o1
 Transferring g2_o1o1o1v1
 Transferring g2_o1o1v1v1
 Transferring g2_o1v1o1v1
 Transferring g2_o1v1v1v1
 Transferring g2_v1v1v1v1
 Computing TPDM gradient
 --------------------------------------------------------
 2e gradient
  Atom          X               Y               Z
 --------------------------------------------------------
    1         -0.000000       -0.000000       11.983395  
    2          0.000000        0.000000      -11.983395  
 --------------------------------------------------------
 --------------------------------------------------------
 Final gradient
  Atom          X               Y               Z
 --------------------------------------------------------
    1         -0.000000       -0.000000       11.983395  
    2          0.000000        0.000000      -11.983395  
 --------------------------------------------------------
 Analytic gradient from two-electron contribution:   CPU 900.67 s  wall 98.73 s

 Memory assigned for libqints: 128 MB
 --------------------------------------------------------
 Nuclear repulsion gradient
  Atom          X               Y               Z
 --------------------------------------------------------
    1          0.000000        0.000000      -11.549026  
    2          0.000000        0.000000       11.549026  
 --------------------------------------------------------
 --------------------------------------------------------
 1e gradient
  Atom          X               Y               Z
 --------------------------------------------------------
    1          0.000000        0.000000       -0.491773  
    2         -0.000000       -0.000000        0.491773  
 --------------------------------------------------------
 Adding separable TPDM in double precision
 Transferring MO TPDM to AO TPDM
 Transferring g2_o1o1o1o1
 Transferring g2_o1o1o1v1
 Transferring g2_o1o1v1v1
 Transferring g2_o1v1o1v1
 Transferring g2_o1v1v1v1
 Transferring g2_v1v1v1v1
 Computing TPDM gradient
 --------------------------------------------------------
 2e gradient
  Atom          X               Y               Z
 --------------------------------------------------------
    1          0.000000       -0.000000      -32.337522  
    2         -0.000000        0.000000       32.337522  
 --------------------------------------------------------
 --------------------------------------------------------
 Final gradient
  Atom          X               Y               Z
 --------------------------------------------------------
    1          0.000000       -0.000000      -32.337522  
    2         -0.000000        0.000000       32.337522  
 --------------------------------------------------------
 Analytic gradient from two-electron contribution:   CPU 898.73 s  wall 99.13 s

 Memory assigned for libqints: 128 MB
 --------------------------------------------------------
 Nuclear repulsion gradient
  Atom          X               Y               Z
 --------------------------------------------------------
    1          0.000000        0.000000      -11.549026  
    2          0.000000        0.000000       11.549026  
 --------------------------------------------------------
 --------------------------------------------------------
 1e gradient
  Atom          X               Y               Z
 --------------------------------------------------------
    1         -0.000000        0.000000       43.856278  
    2         -0.000000       -0.000000      -43.856278  
 --------------------------------------------------------
 Adding separable TPDM in double precision
 Transferring MO TPDM to AO TPDM
 Transferring g2_o1o1o1o1
 Transferring g2_o1o1o1v1
 Transferring g2_o1o1v1v1
 Transferring g2_o1v1o1v1
 Transferring g2_o1v1v1v1
 Transferring g2_v1v1v1v1
 Computing TPDM gradient
 --------------------------------------------------------
 2e gradient
  Atom          X               Y               Z
 --------------------------------------------------------
    1          0.000000       -0.000000        4.220588  
    2         -0.000000        0.000000       -4.220588  
 --------------------------------------------------------
 --------------------------------------------------------
 Final gradient
  Atom          X               Y               Z
 --------------------------------------------------------
    1          0.000000       -0.000000        4.220588  
    2         -0.000000        0.000000       -4.220588  
 --------------------------------------------------------
 Analytic gradient from two-electron contribution:   CPU 887.98 s  wall 94.70 s

 Memory assigned for libqints: 128 MB
 --------------------------------------------------------
 Nuclear repulsion gradient
  Atom          X               Y               Z
 --------------------------------------------------------
    1          0.000000        0.000000      -11.549026  
    2          0.000000        0.000000       11.549026  
 --------------------------------------------------------
 --------------------------------------------------------
 1e gradient
  Atom          X               Y               Z
 --------------------------------------------------------
    1         -0.000000        0.000000        7.294027  
    2         -0.000000       -0.000000       -7.294027  
 --------------------------------------------------------

 Start computing the transition properties

 ------------------------------------------------------------------------------
 ------------------------------------------------------------------------------
 State A: eomea_ccsd/b: 1/B2g
 State B: eomea_ccsd/b: 2/B2g
 Energy GAP = 0.028016 a.u. = 0.762352 eV
 Transition dipole moment (a.u.):
   A->B: 0.000000 (X 0.000000, Y 0.000000, Z 0.000000)
   B->A: 0.000000 (X 0.000000, Y 0.000000, Z 0.000000)
 Oscillator strength (a.u.): 0.000000
 Transition angular momentum against gauge origin (a.u.):
   A->B:  (X 0.000000i, Y 0.000000i, Z 0.000000i)
   B->A:  (X 0.000000i, Y 0.000000i, Z 0.000000i)
 Norm of one-particle transition density matrix:
   A->B: 0.999555;   B->A: 0.999458
   ||gamma^AB||*||gamma^BA||: 0.999014
 Szalay's NAC:
Running a double precision version
           EOM amplitude response will be solved using DIIS.
           Start     Size      MaxIter   EConv     ZConv     
           3         7         100       1.00e-06  1.00e-06  
 ------------------------------------------------------------------------------
            Enorm      Zdiff       Comment
 ------------------------------------------------------------------------------
     1     5.50e-02   2.71e-02     
     2     2.09e-02   1.29e-02     
     3     1.11e-02   5.13e-03     
     4     3.32e-03   4.98e-03     Switched to DIIS steps.
     5     1.34e-03   1.05e-03     
     6     3.01e-04   3.38e-04     
     7     7.00e-05   2.16e-05     
     8     1.61e-05   3.09e-06     
     9     4.34e-06   2.65e-07     
    10     1.09e-06   5.30e-08     
    11     3.31e-07   2.60e-08     
 ------------------------------------------------------------------------------
                                   Amplitude response converged.

           Orbital response amplitudes will be solved using DIIS.
           Start     Size      MaxIter   EConv     LConv     
           3         7         100       1.00e-06  1.00e-06  
 ------------------------------------------------------------------------------
            Enorm      Ldiff       Comment
 ------------------------------------------------------------------------------
     1     4.51e-02   4.91e-03     
     2     1.91e-02   1.38e-02     
     3     8.84e-03   5.00e-03     
     4     5.50e-04   2.06e-03     Switched to DIIS steps.
     5     1.04e-04   6.99e-05     
     6     3.05e-06   7.72e-06     
     7     4.34e-07   4.95e-07     
 ------------------------------------------------------------------------------
                                   Orbital response converged.

Comuting EOM-CCSD/MP2 NACs using Szalay's formalism
 Memory assigned for libqints: 128 MB
 --------------------------------------------------------
 Nuclear repulsion gradient
  Atom          X               Y               Z
 --------------------------------------------------------
    1          0.000000        0.000000      -11.549026  
    2          0.000000        0.000000       11.549026  
 --------------------------------------------------------
 --------------------------------------------------------
 1e gradient
  Atom          X               Y               Z
 --------------------------------------------------------
    1          0.000000        0.000000       19.625509  
    2         -0.000000       -0.000000      -19.625509  
 --------------------------------------------------------
 Transferring MO TPDM to AO TPDM
 Transferring g2_o1o1o1o1
 Transferring g2_o1o1o1v1
 Transferring g2_o1o1v1v1
 Transferring g2_o1v1o1v1
 Transferring g2_o1v1v1v1
 Transferring g2_v1v1v1v1
 Adding separable TPDM
 Computing TPDM gradient
 --------------------------------------------------------
 2e gradient
  Atom          X               Y               Z
 --------------------------------------------------------
    1         -0.000000       -0.000000       -8.129035  
    2          0.000000        0.000000        8.129035  
 --------------------------------------------------------
 --------------------------------------------------------
 Final gradient
  Atom          X               Y               Z
 --------------------------------------------------------
    1         -0.000000       -0.000000       -0.052552  
    2         -0.000000       -0.000000        0.052552  
 --------------------------------------------------------
Energy_I=-109.37765067   Energy_J=-109.34963478   hartree
Delta E=0.02801589   hartree
 --------------------------------------------------------------
G_I, a.u.
  Atom           X                 Y                 Z
 --------------------------------------------------------------
    1         -0.00000000       -0.00000000       -0.00816081  
    2         -0.00000000       -0.00000000        0.00816081  
 --------------------------------------------------------------
 --------------------------------------------------------------
G_J, a.u.
  Atom           X                 Y                 Z
 --------------------------------------------------------------
    1         -0.00000000        0.00000000       -0.00881500  
    2         -0.00000000        0.00000000        0.00881500  
 --------------------------------------------------------------
 --------------------------------------------------------------
G_(I+J), a.u.
  Atom           X                 Y                 Z
 --------------------------------------------------------------
    1         -0.00000000       -0.00000000       -0.05255190  
    2         -0.00000000       -0.00000000        0.05255190  
 --------------------------------------------------------------
 --------------------------------------------------------------
NAC Force h^x_IJ, a.u.
  Atom           X                 Y                 Z
 --------------------------------------------------------------
    1         -0.00000000       -0.00000000       -0.04406400  
    2         -0.00000000       -0.00000000        0.04406400  
 --------------------------------------------------------------
||h^x||= 0.06231590
 --------------------------------------------------------------
NAC d^x_IJ (CI part), a.u.
  Atom           X                 Y                 Z
 --------------------------------------------------------------
    1         -0.00000000       -0.00000000       -1.57282158  
    2         -0.00000000       -0.00000000        1.57282158  
 --------------------------------------------------------------
||d^x||= 2.22430561

 ------------------------------------------------------------------------------
 ------------------------------------------------------------------------------
 State A: eomea_ccsd/b: 1/B2g
 State B: eomea_ccsd/b: 3/B2g
 Energy GAP = 0.06690889 a.u. = 1.82068449 eV
 Transition dipole moment (a.u.):
   A->B: 0.000000 (X 0.000000, Y 0.000000, Z 0.000000)
   B->A: 0.000000 (X 0.000000, Y 0.000000, Z 0.000000)
 Oscillator strength (a.u.): 0.000000
 Transition angular momentum against gauge origin (a.u.):
   A->B:  (X 0.000000i, Y 0.000000i, Z 0.000000i)
   B->A:  (X 0.000000i, Y 0.000000i, Z 0.000000i)
 Norm of one-particle transition density matrix:
   A->B: 0.991736;   B->A: 0.989698
   ||gamma^AB||*||gamma^BA||: 0.981519
 Szalay's NAC:
Running a double precision version
           EOM amplitude response will be solved using DIIS.
           Start     Size      MaxIter   EConv     ZConv     
           3         7         100       1.00e-06  1.00e-06  
 ------------------------------------------------------------------------------
            Enorm      Zdiff       Comment
 ------------------------------------------------------------------------------
     1     5.38e-02   2.74e-02     
     2     2.01e-02   1.24e-02     
     3     1.06e-02   4.88e-03     
     4     3.17e-03   4.64e-03     Switched to DIIS steps.
     5     1.28e-03   9.75e-04     
     6     2.97e-04   3.10e-04     
     7     6.93e-05   2.13e-05     
     8     1.60e-05   3.01e-06     
     9     4.31e-06   3.07e-07     
    10     1.08e-06   6.57e-08     
    11     3.28e-07   2.82e-08     
 ------------------------------------------------------------------------------
                                   Amplitude response converged.

           Orbital response amplitudes will be solved using DIIS.
           Start     Size      MaxIter   EConv     LConv     
           3         7         100       1.00e-06  1.00e-06  
 ------------------------------------------------------------------------------
            Enorm      Ldiff       Comment
 ------------------------------------------------------------------------------
     1     4.99e-02   2.01e-03     
     2     2.21e-02   1.75e-02     
     3     1.07e-02   7.11e-03     
     4     5.04e-04   2.85e-03     Switched to DIIS steps.
     5     9.45e-05   6.33e-05     
     6     4.45e-06   3.32e-06     
     7     1.14e-06   6.38e-07     
     8     2.74e-07   2.57e-08     
 ------------------------------------------------------------------------------
                                   Orbital response converged.

Comuting EOM-CCSD/MP2 NACs using Szalay's formalism
 Memory assigned for libqints: 128 MB
 --------------------------------------------------------
 Nuclear repulsion gradient
  Atom          X               Y               Z
 --------------------------------------------------------
    1          0.000000        0.000000      -11.549026  
    2          0.000000        0.000000       11.549026  
 --------------------------------------------------------
 --------------------------------------------------------
 1e gradient
  Atom          X               Y               Z
 --------------------------------------------------------
    1         -0.000000        0.000000       38.039609  
    2         -0.000000       -0.000000      -38.039609  
 --------------------------------------------------------
 Transferring MO TPDM to AO TPDM
 Transferring g2_o1o1o1o1
 Transferring g2_o1o1o1v1
 Transferring g2_o1o1v1v1
 Transferring g2_o1v1o1v1
 Transferring g2_o1v1v1v1
 Transferring g2_v1v1v1v1
 Adding separable TPDM
 Computing TPDM gradient
 --------------------------------------------------------
 2e gradient
  Atom          X               Y               Z
 --------------------------------------------------------
    1          0.000000       -0.000000      -26.478407  
    2         -0.000000        0.000000       26.478407  
 --------------------------------------------------------
 --------------------------------------------------------
 Final gradient
  Atom          X               Y               Z
 --------------------------------------------------------
    1         -0.000000        0.000000        0.012176  
    2         -0.000000        0.000000       -0.012176  
 --------------------------------------------------------
Energy_I=-109.37765067   Energy_J=-109.31074178   hartree
Delta E=0.06690889   hartree
 --------------------------------------------------------------
G_I, a.u.
  Atom           X                 Y                 Z
 --------------------------------------------------------------
    1         -0.00000000       -0.00000000       -0.00816081  
    2         -0.00000000       -0.00000000        0.00816081  
 --------------------------------------------------------------
 --------------------------------------------------------------
G_J, a.u.
  Atom           X                 Y                 Z
 --------------------------------------------------------------
    1         -0.00000000        0.00000000       -0.06813238  
    2         -0.00000000        0.00000000        0.06813238  
 --------------------------------------------------------------
 --------------------------------------------------------------
G_(I+J), a.u.
  Atom           X                 Y                 Z
 --------------------------------------------------------------
    1         -0.00000000        0.00000000        0.01217605  
    2         -0.00000000        0.00000000       -0.01217605  
 --------------------------------------------------------------
 --------------------------------------------------------------
NAC Force h^x_IJ, a.u.
  Atom           X                 Y                 Z
 --------------------------------------------------------------
    1          0.00000000        0.00000000        0.05032264  
    2          0.00000000        0.00000000       -0.05032264  
 --------------------------------------------------------------
||h^x||= 0.07116697
 --------------------------------------------------------------
NAC d^x_IJ (CI part), a.u.
  Atom           X                 Y                 Z
 --------------------------------------------------------------
    1          0.00000000        0.00000000        0.75210702  
    2          0.00000000        0.00000000       -0.75210702  
 --------------------------------------------------------------
||d^x||= 1.06363995

 ------------------------------------------------------------------------------
 ------------------------------------------------------------------------------
 State A: eomea_ccsd/b: 1/B2g
 State B: eomea_ccsd/b: 4/B2g
 Energy GAP = 0.09251899 a.u. = 2.51757121 eV
 Transition dipole moment (a.u.):
   A->B: 0.000000 (X 0.000000, Y 0.000000, Z 0.000000)
   B->A: 0.000000 (X 0.000000, Y 0.000000, Z 0.000000)
 Oscillator strength (a.u.): 0.000000
 Transition angular momentum against gauge origin (a.u.):
   A->B:  (X 0.000000i, Y 0.000000i, Z 0.000000i)
   B->A:  (X 0.000000i, Y 0.000000i, Z 0.000000i)
 Norm of one-particle transition density matrix:
   A->B: 0.983561;   B->A: 0.979343
   ||gamma^AB||*||gamma^BA||: 0.963244
 Szalay's NAC:
Running a double precision version
           EOM amplitude response will be solved using DIIS.
           Start     Size      MaxIter   EConv     ZConv     
           3         7         100       1.00e-06  1.00e-06  
 ------------------------------------------------------------------------------
            Enorm      Zdiff       Comment
 ------------------------------------------------------------------------------
     1     5.29e-02   2.77e-02     
     2     1.96e-02   1.21e-02     
     3     1.03e-02   4.73e-03     
     4     3.05e-03   4.42e-03     Switched to DIIS steps.
     5     1.22e-03   9.15e-04     
     6     2.93e-04   2.88e-04     
     7     6.88e-05   2.09e-05     
     8     1.60e-05   2.91e-06     
     9     4.33e-06   3.34e-07     
    10     1.07e-06   7.84e-08     
    11     3.26e-07   2.83e-08     
 ------------------------------------------------------------------------------
                                   Amplitude response converged.

           Orbital response amplitudes will be solved using DIIS.
           Start     Size      MaxIter   EConv     LConv     
           3         7         100       1.00e-06  1.00e-06  
 ------------------------------------------------------------------------------
            Enorm      Ldiff       Comment
 ------------------------------------------------------------------------------
     1     5.67e-02   1.29e-03     
     2     2.58e-02   2.13e-02     
     3     1.28e-02   9.20e-03     
     4     4.91e-04   3.61e-03     Switched to DIIS steps.
     5     1.06e-04   5.49e-05     
     6     1.83e-05   2.88e-06     
     7     3.88e-06   1.90e-06     
     8     3.93e-07   1.51e-08     
 ------------------------------------------------------------------------------
                                   Orbital response converged.

Comuting EOM-CCSD/MP2 NACs using Szalay's formalism
 Memory assigned for libqints: 128 MB
 --------------------------------------------------------
 Nuclear repulsion gradient
  Atom          X               Y               Z
 --------------------------------------------------------
    1          0.000000        0.000000      -11.549026  
    2          0.000000        0.000000       11.549026  
 --------------------------------------------------------
 --------------------------------------------------------
 1e gradient
  Atom          X               Y               Z
 --------------------------------------------------------
    1         -0.000000        0.000000       30.077867  
    2         -0.000000       -0.000000      -30.077867  
 --------------------------------------------------------
 Transferring MO TPDM to AO TPDM
 Transferring g2_o1o1o1o1
 Transferring g2_o1o1o1v1
 Transferring g2_o1o1v1v1
 Transferring g2_o1v1o1v1
 Transferring g2_o1v1v1v1
 Transferring g2_v1v1v1v1
 Adding separable TPDM
 Computing TPDM gradient
 --------------------------------------------------------
 2e gradient
  Atom          X               Y               Z
 --------------------------------------------------------
    1         -0.000000       -0.000000      -18.468364  
    2          0.000000        0.000000       18.468364  
 --------------------------------------------------------
 --------------------------------------------------------
 Final gradient
  Atom          X               Y               Z
 --------------------------------------------------------
    1         -0.000000        0.000000        0.060478  
    2         -0.000000        0.000000       -0.060478  
 --------------------------------------------------------
Energy_I=-109.37765067   Energy_J=-109.28513168   hartree
Delta E=0.09251899   hartree
 --------------------------------------------------------------
G_I, a.u.
  Atom           X                 Y                 Z
 --------------------------------------------------------------
    1         -0.00000000       -0.00000000       -0.00816081  
    2         -0.00000000       -0.00000000        0.00816081  
 --------------------------------------------------------------
 --------------------------------------------------------------
G_J, a.u.
  Atom           X                 Y                 Z
 --------------------------------------------------------------
    1         -0.00000000        0.00000000       -0.13189847  
    2         -0.00000000        0.00000000        0.13189847  
 --------------------------------------------------------------
 --------------------------------------------------------------
G_(I+J), a.u.
  Atom           X                 Y                 Z
 --------------------------------------------------------------
    1         -0.00000000        0.00000000        0.06047789  
    2         -0.00000000        0.00000000       -0.06047789  
 --------------------------------------------------------------
 --------------------------------------------------------------
NAC Force h^x_IJ, a.u.
  Atom           X                 Y                 Z
[...]
||h^x||= 0.10814531
 --------------------------------------------------------------
NAC d^x_IJ (CI part), a.u.
  Atom           X                 Y                 Z
 --------------------------------------------------------------
    1         -0.00000000        0.00000000       -0.46513030  
    2         -0.00000000        0.00000000        0.46513030  
 --------------------------------------------------------------
||d^x||= 0.65779358

 ------------------------------------------------------------------------------
 ------------------------------------------------------------------------------
 State A: eomea_ccsd/b: 6/B2g
 State B: eomea_ccsd/b: 7/B2g
 Energy GAP = 0.10302247 a.u. = 2.80338557 eV
 Transition dipole moment (a.u.):
   A->B: 0.000000 (X 0.000000, Y 0.000000, Z 0.000000)
   B->A: 0.000000 (X 0.000000, Y 0.000000, Z 0.000000)
 Oscillator strength (a.u.): 0.000000
 Transition angular momentum against gauge origin (a.u.):
   A->B:  (X 0.000000i, Y 0.000000i, Z 0.000000i)
   B->A:  (X 0.000000i, Y 0.000000i, Z 0.000000i)
 Norm of one-particle transition density matrix:
   A->B: 0.986575;   B->A: 0.985798
   ||gamma^AB||*||gamma^BA||: 0.972564
 Szalay's NAC:
Running a double precision version
           EOM amplitude response will be solved using DIIS.
           Start     Size      MaxIter   EConv     ZConv     
           3         7         100       1.00e-06  1.00e-06  
 ------------------------------------------------------------------------------
            Enorm      Zdiff       Comment
 ------------------------------------------------------------------------------
     1     5.50e-02   2.70e-02     
     2     2.09e-02   1.29e-02     
     3     1.11e-02   5.13e-03     
     4     3.32e-03   4.98e-03     Switched to DIIS steps.
     5     1.34e-03   1.05e-03     
     6     3.01e-04   3.38e-04     
     7     6.99e-05   2.16e-05     
     8     1.61e-05   3.10e-06     
     9     4.34e-06   2.66e-07     
    10     1.09e-06   5.26e-08     
    11     3.31e-07   2.61e-08     
 ------------------------------------------------------------------------------
                                   Amplitude response converged.

           Orbital response amplitudes will be solved using DIIS.
           Start     Size      MaxIter   EConv     LConv     
           3         7         100       1.00e-06  1.00e-06  
 ------------------------------------------------------------------------------
            Enorm      Ldiff       Comment
 ------------------------------------------------------------------------------
     1     4.50e-02   4.93e-03     
     2     1.90e-02   1.35e-02     
     3     8.78e-03   4.94e-03     
     4     5.52e-04   2.01e-03     Switched to DIIS steps.
     5     1.11e-04   7.41e-05     
     6     8.49e-06   8.44e-06     
     7     2.84e-06   7.57e-07     
     8     3.17e-07   1.53e-09     
 ------------------------------------------------------------------------------
                                   Orbital response converged.

Comuting EOM-CCSD/MP2 NACs using Szalay's formalism
 Memory assigned for libqints: 128 MB
 --------------------------------------------------------
 Nuclear repulsion gradient
  Atom          X               Y               Z
 --------------------------------------------------------
    1          0.000000        0.000000      -11.549026  
    2          0.000000        0.000000       11.549026  
 --------------------------------------------------------
 --------------------------------------------------------
 1e gradient
  Atom          X               Y               Z
 --------------------------------------------------------
    1         -0.000000        0.000000       19.547395  
    2         -0.000000       -0.000000      -19.547395  
 --------------------------------------------------------
 Transferring MO TPDM to AO TPDM
 Transferring g2_o1o1o1o1
 Transferring g2_o1o1o1v1
 Transferring g2_o1o1v1v1
 Transferring g2_o1v1o1v1
 Transferring g2_o1v1v1v1
 Transferring g2_v1v1v1v1
 Adding separable TPDM
 Computing TPDM gradient
 --------------------------------------------------------
 2e gradient
  Atom          X               Y               Z
 --------------------------------------------------------
    1          0.000000       -0.000000       -7.693010  
    2         -0.000000        0.000000        7.693010  
 --------------------------------------------------------
 --------------------------------------------------------
 Final gradient
  Atom          X               Y               Z
 --------------------------------------------------------
    1         -0.000000       -0.000000        0.305359  
    2         -0.000000       -0.000000       -0.305359  
 --------------------------------------------------------
Energy_I=-109.17629961   Energy_J=-109.07327714   hartree
Delta E=0.10302247   hartree
 --------------------------------------------------------------
G_I, a.u.
  Atom           X                 Y                 Z
 --------------------------------------------------------------
    1         -0.00000000       -0.00000000       -0.03026965  
    2         -0.00000000       -0.00000000        0.03026965  
 --------------------------------------------------------------
 --------------------------------------------------------------
G_J, a.u.
  Atom           X                 Y                 Z
 --------------------------------------------------------------
    1         -0.00000000        0.00000000       -0.03441041  
    2         -0.00000000        0.00000000        0.03441041  
 --------------------------------------------------------------
 --------------------------------------------------------------
G_(I+J), a.u.
  Atom           X                 Y                 Z
 --------------------------------------------------------------
    1         -0.00000000       -0.00000000        0.30535898  
    2         -0.00000000       -0.00000000       -0.30535898  
 --------------------------------------------------------------
 --------------------------------------------------------------
NAC Force h^x_IJ, a.u.
  Atom           X                 Y                 Z
 --------------------------------------------------------------
    1         -0.00000000       -0.00000000        0.33769901  
    2         -0.00000000       -0.00000000       -0.33769901  
 --------------------------------------------------------------
||h^x||= 0.47757852
 --------------------------------------------------------------
NAC d^x_IJ (CI part), a.u.
  Atom           X                 Y                 Z
 --------------------------------------------------------------
    1         -0.00000000       -0.00000000        3.27791615  
    2         -0.00000000       -0.00000000       -3.27791615  
 --------------------------------------------------------------
||d^x||= 4.63567347


 All requested transition properties have been computed

 Transition Properties:   CPU 24347.26 s  wall 4727.06 s

Starting Projected CAP calculation.
Generating CAP matrix for 7 roots.
Performing Projected CAP-EOM calculation for B2g states.
Number of states: 7
Zeroth order Hamiltonian:
-1.09377650666311823e+02 0.00000000000000000e+00 0.00000000000000000e+00 0.00000000000000000e+00 0.00000000000000000e+00 0.00000000000000000e+00 0.00000000000000000e+00
0.00000000000000000e+00 -1.09349634775778156e+02 0.00000000000000000e+00 0.00000000000000000e+00 0.00000000000000000e+00 0.00000000000000000e+00 0.00000000000000000e+00
0.00000000000000000e+00 0.00000000000000000e+00 -1.09310741779309694e+02 0.00000000000000000e+00 0.00000000000000000e+00 0.00000000000000000e+00 0.00000000000000000e+00
0.00000000000000000e+00 0.00000000000000000e+00 0.00000000000000000e+00 -1.09285131677516034e+02 0.00000000000000000e+00 0.00000000000000000e+00 0.00000000000000000e+00
0.00000000000000000e+00 0.00000000000000000e+00 0.00000000000000000e+00 0.00000000000000000e+00 -1.09237683285158113e+02 0.00000000000000000e+00 0.00000000000000000e+00
0.00000000000000000e+00 0.00000000000000000e+00 0.00000000000000000e+00 0.00000000000000000e+00 0.00000000000000000e+00 -1.09176299607842353e+02 0.00000000000000000e+00
0.00000000000000000e+00 0.00000000000000000e+00 0.00000000000000000e+00 0.00000000000000000e+00 0.00000000000000000e+00 0.00000000000000000e+00 -1.09073277140508253e+02
CAP matrix:
-2.33907625585408226e+02 1.01939909737305967e+02 -2.88227395048459591e+01 -1.43227130528892594e+01 -3.58476282113193756e+00 1.67861604551272201e+01 9.58853059988542533e+00
1.01949017613467362e+02 -1.44509552601056669e+02 7.19839459026134136e+01 4.16145938504592152e+01 -2.50661377180750833e+00 -2.34757319208571182e+01 -1.45572948441399035e+01
-2.89668429645215681e+01 7.23381826034491411e+01 -6.65722737095830723e+01 -5.19489740994290301e+01 1.50847979552557305e+01 2.95901092690487069e+01 1.83535811745697153e+01
-1.44676438365789295e+01 4.20348001260089887e+01 -5.22134100085237378e+01 -4.87374625401938175e+01 2.63870078270035116e+01 2.62753737007978572e+01 2.14811406492803947e+01
-3.59160521851005132e+00 -2.51546981452645957e+00 1.50425095668667392e+01 2.61873817823246640e+01 -4.36139330975460169e+01 -2.68631564925535216e+00 -2.52731518192347693e+01
1.68021354980869013e+01 -2.34962061555056003e+01 2.94713056986555806e+01 2.60367774338606388e+01 -2.68639684784477106e+00 -2.91403909952365545e+01 -1.04365378236627571e+01
9.58839514680728122e+00 -1.45576109976133008e+01 1.82590683074018756e+01 2.12712166220318295e+01 -2.52128336851386550e+01 -1.04223073605653891e+01 -2.69371158861022515e+01
Trajectory will be saved to B2g_traj.out
Done with B2g states.
 Trajectory ran in:   CPU 0.00 s  wall 0.00 s
Total Projected CAP Hamiltonian:
Number of states: 7
Zeroth order Hamiltonian:
-1.09377650666311823e+02 0.00000000000000000e+00 0.00000000000000000e+00 0.00000000000000000e+00 0.00000000000000000e+00 0.00000000000000000e+00 0.00000000000000000e+00
0.00000000000000000e+00 -1.09349634775778156e+02 0.00000000000000000e+00 0.00000000000000000e+00 0.00000000000000000e+00 0.00000000000000000e+00 0.00000000000000000e+00
0.00000000000000000e+00 0.00000000000000000e+00 -1.09310741779309694e+02 0.00000000000000000e+00 0.00000000000000000e+00 0.00000000000000000e+00 0.00000000000000000e+00
0.00000000000000000e+00 0.00000000000000000e+00 0.00000000000000000e+00 -1.09285131677516034e+02 0.00000000000000000e+00 0.00000000000000000e+00 0.00000000000000000e+00
0.00000000000000000e+00 0.00000000000000000e+00 0.00000000000000000e+00 0.00000000000000000e+00 -1.09237683285158113e+02 0.00000000000000000e+00 0.00000000000000000e+00
0.00000000000000000e+00 0.00000000000000000e+00 0.00000000000000000e+00 0.00000000000000000e+00 0.00000000000000000e+00 -1.09176299607842353e+02 0.00000000000000000e+00
0.00000000000000000e+00 0.00000000000000000e+00 0.00000000000000000e+00 0.00000000000000000e+00 0.00000000000000000e+00 0.00000000000000000e+00 -1.09073277140508253e+02
CAP matrix:
-2.33907625585408226e+02 1.01939909737305967e+02 -2.88227395048459591e+01 -1.43227130528892594e+01 -3.58476282113193756e+00 1.67861604551272201e+01 9.58853059988542533e+00
1.01949017613467362e+02 -1.44509552601056669e+02 7.19839459026134136e+01 4.16145938504592152e+01 -2.50661377180750833e+00 -2.34757319208571182e+01 -1.45572948441399035e+01
-2.89668429645215681e+01 7.23381826034491411e+01 -6.65722737095830723e+01 -5.19489740994290301e+01 1.50847979552557305e+01 2.95901092690487069e+01 1.83535811745697153e+01
-1.44676438365789295e+01 4.20348001260089887e+01 -5.22134100085237378e+01 -4.87374625401938175e+01 2.63870078270035116e+01 2.62753737007978572e+01 2.14811406492803947e+01
-3.59160521851005132e+00 -2.51546981452645957e+00 1.50425095668667392e+01 2.61873817823246640e+01 -4.36139330975460169e+01 -2.68631564925535216e+00 -2.52731518192347693e+01
1.68021354980869013e+01 -2.34962061555056003e+01 2.94713056986555806e+01 2.60367774338606388e+01 -2.68639684784477106e+00 -2.91403909952365545e+01 -1.04365378236627571e+01
9.58839514680728122e+00 -1.45576109976133008e+01 1.82590683074018756e+01 2.12712166220318295e+01 -2.52128336851386550e+01 -1.04223073605653891e+01 -2.69371158861022515e+01
Densities have been written to checkpoint file for further analysis.
 Total ccman2 time:   CPU 33351.24 s  wall 6525.78 s


 --------------------------------------------------------------
             Orbital Energies (a.u.) and Symmetries
 --------------------------------------------------------------

 Alpha MOs, Restricted
 -- Occupied --                  
-15.682  -1.478  -0.635 -15.679  -0.777  -0.618  -0.618
  1 Ag    2 Ag    3 Ag    1 B1u   2 B1u   1 B2u   1 B3u                        
 -- Virtual --                   
  0.007   0.018   0.034   0.052   0.053   0.087   0.119   0.154
  4 Ag    5 Ag    6 Ag    7 Ag    8 Ag    9 Ag   10 Ag   11 Ag                 
  0.155   0.209   0.285   0.330   0.348   0.530   0.661   0.714
 12 Ag   13 Ag   14 Ag   15 Ag   16 Ag   17 Ag   18 Ag   19 Ag                 
  1.042   1.475   1.578   1.750   1.804   2.987   4.069   4.463
 20 Ag   21 Ag   22 Ag   23 Ag   24 Ag   25 Ag   26 Ag   27 Ag                 
  4.759   5.218   6.804  12.393   0.053   0.155   0.348   0.714
 28 Ag   29 Ag   30 Ag   31 Ag    1 B1g   2 B1g   3 B1g   4 B1g                
  1.578   1.750   4.463   5.218   0.016   0.045   0.089   0.133
  5 B1g   6 B1g   7 B1g   8 B1g   1 B2g   2 B2g   3 B2g   4 B2g                
  0.169   0.227   0.333   0.533   0.911   1.099   1.722   1.961
  5 B2g   6 B2g   7 B2g   8 B2g   9 B2g  10 B2g  11 B2g  12 B2g                
  2.475   4.452   5.049   5.440   6.957   0.016   0.045   0.089
 13 B2g  14 B2g  15 B2g  16 B2g  17 B2g   1 B3g   2 B3g   3 B3g                
  0.133   0.169   0.227   0.333   0.533   0.911   1.099   1.722
  4 B3g   5 B3g   6 B3g   7 B3g   8 B3g   9 B3g  10 B3g  11 B3g                
  1.961   2.475   4.452   5.049   5.440   6.957   0.072   0.193
 12 B3g  13 B3g  14 B3g  15 B3g  16 B3g  17 B3g   1 Au    2 Au                 
  0.427   0.879   1.811   2.332   5.269   5.791   0.009   0.029
  3 Au    4 Au    5 Au    6 Au    7 Au    8 Au    3 B1u   4 B1u                
  0.065   0.072   0.072   0.128   0.192   0.193   0.243   0.416
  5 B1u   6 B1u   7 B1u   8 B1u   9 B1u  10 B1u  11 B1u  12 B1u                
  0.427   0.465   0.781   0.879   0.908   1.255   1.811   1.836
 13 B1u  14 B1u  15 B1u  16 B1u  17 B1u  18 B1u  19 B1u  20 B1u                
  2.083   2.332   2.820   4.710   5.269   5.311   5.791   6.821
 21 B1u  22 B1u  23 B1u  24 B1u  25 B1u  26 B1u  27 B1u  28 B1u                
 20.052   0.012   0.041   0.073   0.104   0.198   0.254   0.448
 29 B1u   2 B2u   3 B2u   4 B2u   5 B2u   6 B2u   7 B2u   8 B2u                
  0.727   1.002   1.372   1.657   2.201   3.464   4.562   4.657
  9 B2u  10 B2u  11 B2u  12 B2u  13 B2u  14 B2u  15 B2u  16 B2u                
  5.699   0.012   0.041   0.073   0.104   0.198   0.254   0.448
 17 B2u   2 B3u   3 B3u   4 B3u   5 B3u   6 B3u   7 B3u   8 B3u                
  0.727   1.002   1.372   1.657   2.201   3.464   4.562   4.657
  9 B3u  10 B3u  11 B3u  12 B3u  13 B3u  14 B3u  15 B3u  16 B3u                
  5.699
 17 B3u                                                                        

 Beta MOs, Restricted
 -- Occupied --                  
-15.682  -1.478  -0.635 -15.679  -0.777  -0.618  -0.618
  1 Ag    2 Ag    3 Ag    1 B1u   2 B1u   1 B2u   1 B3u                        
 -- Virtual --                   
  0.007   0.018   0.034   0.052   0.053   0.087   0.119   0.154
  4 Ag    5 Ag    6 Ag    7 Ag    8 Ag    9 Ag   10 Ag   11 Ag                 
  0.155   0.209   0.285   0.330   0.348   0.530   0.661   0.714
 12 Ag   13 Ag   14 Ag   15 Ag   16 Ag   17 Ag   18 Ag   19 Ag                 
  1.042   1.475   1.578   1.750   1.804   2.987   4.069   4.463
 20 Ag   21 Ag   22 Ag   23 Ag   24 Ag   25 Ag   26 Ag   27 Ag                 
  4.759   5.218   6.804  12.393   0.053   0.155   0.348   0.714
 28 Ag   29 Ag   30 Ag   31 Ag    1 B1g   2 B1g   3 B1g   4 B1g                
  1.578   1.750   4.463   5.218   0.016   0.045   0.089   0.133
  5 B1g   6 B1g   7 B1g   8 B1g   1 B2g   2 B2g   3 B2g   4 B2g                
  0.169   0.227   0.333   0.533   0.911   1.099   1.722   1.961
  5 B2g   6 B2g   7 B2g   8 B2g   9 B2g  10 B2g  11 B2g  12 B2g                
  2.475   4.452   5.049   5.440   6.957   0.016   0.045   0.089
 13 B2g  14 B2g  15 B2g  16 B2g  17 B2g   1 B3g   2 B3g   3 B3g                
  0.133   0.169   0.227   0.333   0.533   0.911   1.099   1.722
  4 B3g   5 B3g   6 B3g   7 B3g   8 B3g   9 B3g  10 B3g  11 B3g                
  1.961   2.475   4.452   5.049   5.440   6.957   0.072   0.193
 12 B3g  13 B3g  14 B3g  15 B3g  16 B3g  17 B3g   1 Au    2 Au                 
  0.427   0.879   1.811   2.332   5.269   5.791   0.009   0.029
  3 Au    4 Au    5 Au    6 Au    7 Au    8 Au    3 B1u   4 B1u                
  0.065   0.072   0.072   0.128   0.192   0.193   0.243   0.416
  5 B1u   6 B1u   7 B1u   8 B1u   9 B1u  10 B1u  11 B1u  12 B1u                
  0.427   0.465   0.781   0.879   0.908   1.255   1.811   1.836
 13 B1u  14 B1u  15 B1u  16 B1u  17 B1u  18 B1u  19 B1u  20 B1u                
  2.083   2.332   2.820   4.710   5.269   5.311   5.791   6.821
 21 B1u  22 B1u  23 B1u  24 B1u  25 B1u  26 B1u  27 B1u  28 B1u                
 20.052   0.012   0.041   0.073   0.104   0.198   0.254   0.448
 29 B1u   2 B2u   3 B2u   4 B2u   5 B2u   6 B2u   7 B2u   8 B2u                
  0.727   1.002   1.372   1.657   2.201   3.464   4.562   4.657
  9 B2u  10 B2u  11 B2u  12 B2u  13 B2u  14 B2u  15 B2u  16 B2u                
  5.699   0.012   0.041   0.073   0.104   0.198   0.254   0.448
 17 B2u   2 B3u   3 B3u   4 B3u   5 B3u   6 B3u   7 B3u   8 B3u                
  0.727   1.002   1.372   1.657   2.201   3.464   4.562   4.657
  9 B3u  10 B3u  11 B3u  12 B3u  13 B3u  14 B3u  15 B3u  16 B3u                
  5.699
 17 B3u                                                                        
 --------------------------------------------------------------

          Ground-State Mulliken Net Atomic Charges

     Atom                 Charge (a.u.)
  ----------------------------------------
      1 N                    -0.000000
      2 N                     0.000000
  ----------------------------------------
  Sum of atomic charges =     0.000000

 -----------------------------------------------------------------
                    Cartesian Multipole Moments
 -----------------------------------------------------------------
    Charge (ESU x 10^10)
                 0.0000
    Dipole Moment (Debye)
         X      -0.0000      Y       0.0000      Z      -0.0000
       Tot       0.0000
    Quadrupole Moments (Debye-Ang)
        XX     -10.3692     XY      -0.0000     YY     -10.3692
        XZ      -0.0000     YZ       0.0000     ZZ     -11.6389
    Octopole Moments (Debye-Ang^2)
       XXX      -0.0000    XXY       0.0000    XYY      -0.0000
       YYY       0.0000    XXZ      -0.0000    XYZ      -0.0000
       YYZ      -0.0000    XZZ      -0.0000    YZZ       0.0000
       ZZZ      -0.0000
    Hexadecapole Moments (Debye-Ang^3)
      XXXX      -9.3200   XXXY      -0.0000   XXYY      -3.1067
      XYYY      -0.0000   YYYY      -9.3200   XXXZ      -0.0000
      XXYZ      -0.0000   XYYZ      -0.0000   YYYZ      -0.0000
      XXZZ      -6.2933   XYZZ      -0.0000   YYZZ      -6.2933
      XZZZ      -0.0000   YZZZ      -0.0000   ZZZZ     -31.2804
 -----------------------------------------------------------------
 Total job time:  6532.28s(wall), 33375.26s(cpu) 
 Wed Mar  8 19:14:21 2023

        *************************************************************
        *                                                           *
        *  Thank you very much for using Q-Chem.  Have a nice day.  *
        *                                                           *
        *************************************************************


