Jobname.Temp
SP        R                             non-standard        
Number of atoms                            I                3
Charge                                     I                0
Multiplicity                               I                1
Number of electrons                        I               14
Number of alpha electrons                  I                7
Number of beta electrons                   I                7
Atomic numbers                             I   N=           3
           7           7           0
Current cartesian coordinates              R   N=           9
  0.00000000E+00  0.00000000E+00  1.03900000E+00  0.00000000E+00  0.00000000E+00
 -1.03900000E+00  0.00000000E+00  0.00000000E+00  0.00000000E+00
Nuclear charges                            R   N=           3
  7.00000000E+00  7.00000000E+00  0.00000000E+00
Number of basis functions                  I               35
Number of contracted shells                I                9
Number of primitive shells                 I               26
Highest angular momentum                   I                4
Largest degree of contraction              I                6
Shell types                                I   N=           9
           0          -1           0          -1           0           1
          -2          -3          -4
Number of primitives per shell             I   N=           9
           6           2           6           2           6           1
           1           1           1
Shell to atom map                          I   N=           9
           1           1           2           2           3           3
           3           3           3
Primitive exponents                        R   N=          26
  4.15011000E+03  6.20084000E+02  1.41688000E+02  4.03367000E+01  1.30267000E+01
  4.47003000E+00  5.42522000E+00  1.14915000E+00  4.15011000E+03  6.20084000E+02
  1.41688000E+02  4.03367000E+01  1.30267000E+01  4.47003000E+00  5.42522000E+00
  1.14915000E+00  4.15011000E+03  6.20084000E+02  1.41688000E+02  4.03367000E+01
  1.30267000E+01  4.47003000E+00  5.42522000E+00  1.87000000E-01  3.49200000E-01
  8.34500000E+00
Contraction coefficients                   R   N=          26
  1.84540991E-03  1.41644993E-02  6.86324967E-02  2.28573989E-01  4.66161978E-01
  3.65671983E-01 -4.13300077E-01  1.22441727E+00  1.84540991E-03  1.41644993E-02
  6.86324967E-02  2.28573989E-01  4.66161978E-01  3.65671983E-01 -4.13300077E-01
  1.22441727E+00  1.84540991E-03  1.41644993E-02  6.86324967E-02  2.28573989E-01
  4.66161978E-01  3.65671983E-01  1.00000000E+00  1.00000000E+00  1.00000000E+00
  1.00000000E+00
P(S=P) Contraction coefficients            R   N=          26
  0.00000000E+00  0.00000000E+00  0.00000000E+00  0.00000000E+00  0.00000000E+00
  0.00000000E+00  2.37972016E-01  8.58953059E-01  0.00000000E+00  0.00000000E+00
  0.00000000E+00  0.00000000E+00  0.00000000E+00  0.00000000E+00  2.37972016E-01
  8.58953059E-01  0.00000000E+00  0.00000000E+00  0.00000000E+00  0.00000000E+00
  0.00000000E+00  0.00000000E+00  0.00000000E+00  0.00000000E+00  0.00000000E+00
  0.00000000E+00
Coordinates of each shell                  R   N=          27
  0.00000000E+00  0.00000000E+00  1.03900000E+00  0.00000000E+00  0.00000000E+00
  1.03900000E+00  0.00000000E+00  0.00000000E+00 -1.03900000E+00  0.00000000E+00
  0.00000000E+00 -1.03900000E+00  0.00000000E+00  0.00000000E+00  0.00000000E+00
  0.00000000E+00  0.00000000E+00  0.00000000E+00  0.00000000E+00  0.00000000E+00
  0.00000000E+00  0.00000000E+00  0.00000000E+00  0.00000000E+00  0.00000000E+00
  0.00000000E+00  0.00000000E+00
Overlap Matrix                             R   N=         630
  1.00000000E+00  2.40200747E-01  1.00000000E+00  0.00000000E+00  0.00000000E+00
  1.00000000E+00  0.00000000E+00  0.00000000E+00  0.00000000E+00  1.00000000E+00
 -7.15408453E-17  0.00000000E+00  0.00000000E+00  0.00000000E+00  1.00000000E+00
  8.76795515E-06  9.13944065E-03  0.00000000E+00  0.00000000E+00 -2.39350021E-02
  1.00000000E+00  9.13944065E-03  1.14253642E-01  0.00000000E+00  0.00000000E+00
 -1.87023495E-01  2.40200747E-01  1.00000000E+00  0.00000000E+00  0.00000000E+00
  6.51452382E-02  0.00000000E+00  0.00000000E+00  0.00000000E+00  0.00000000E+00
  1.00000000E+00  0.00000000E+00  0.00000000E+00  0.00000000E+00  6.51452382E-02
  0.00000000E+00  0.00000000E+00  0.00000000E+00  0.00000000E+00  1.00000000E+00
  2.39350021E-02  1.87023495E-01  0.00000000E+00  0.00000000E+00 -2.69175054E-01
  7.15408453E-17  0.00000000E+00  0.00000000E+00  0.00000000E+00  1.00000000E+00
  2.09250066E-02  1.98642146E-01  0.00000000E+00  0.00000000E+00 -3.02495672E-01
  2.09250066E-02  1.98642146E-01  0.00000000E+00  0.00000000E+00  3.02495672E-01
  1.00000000E+00  0.00000000E+00  0.00000000E+00  1.67901357E-01  0.00000000E+00
  0.00000000E+00  0.00000000E+00  0.00000000E+00  1.67901357E-01  0.00000000E+00
  0.00000000E+00  0.00000000E+00  1.00000000E+00  0.00000000E+00  0.00000000E+00
  0.00000000E+00  1.67901357E-01  0.00000000E+00  0.00000000E+00  0.00000000E+00
  0.00000000E+00  1.67901357E-01  0.00000000E+00  0.00000000E+00  0.00000000E+00
  1.00000000E+00  8.16990001E-02  1.92867683E-01  0.00000000E+00  0.00000000E+00
 -2.24344072E-01 -8.16990001E-02 -1.92867683E-01  0.00000000E+00  0.00000000E+00
 -2.24344072E-01  0.00000000E+00  0.00000000E+00  0.00000000E+00  1.00000000E+00
  5.65663886E-02  1.73292985E-01  0.00000000E+00  0.00000000E+00  2.25758597E-01
  5.65663886E-02  1.73292985E-01  0.00000000E+00  0.00000000E+00 -2.25758597E-01
  0.00000000E+00  0.00000000E+00  0.00000000E+00  0.00000000E+00  1.00000000E+00
  0.00000000E+00  0.00000000E+00  2.36930643E-01  0.00000000E+00  0.00000000E+00
  0.00000000E+00  0.00000000E+00 -2.36930643E-01  0.00000000E+00  0.00000000E+00
  0.00000000E+00  0.00000000E+00  0.00000000E+00  0.00000000E+00  0.00000000E+00
  1.00000000E+00  0.00000000E+00  0.00000000E+00  0.00000000E+00  2.36930643E-01
  0.00000000E+00  0.00000000E+00  0.00000000E+00  0.00000000E+00 -2.36930643E-01
  0.00000000E+00  0.00000000E+00  0.00000000E+00  0.00000000E+00  0.00000000E+00
  0.00000000E+00  0.00000000E+00  1.00000000E+00  0.00000000E+00  0.00000000E+00
  0.00000000E+00  0.00000000E+00  0.00000000E+00  0.00000000E+00  0.00000000E+00
  0.00000000E+00  0.00000000E+00  0.00000000E+00  0.00000000E+00  0.00000000E+00
  0.00000000E+00  0.00000000E+00  0.00000000E+00  0.00000000E+00  0.00000000E+00
  1.00000000E+00  0.00000000E+00  0.00000000E+00  0.00000000E+00  0.00000000E+00
  0.00000000E+00  0.00000000E+00  0.00000000E+00  0.00000000E+00  0.00000000E+00
  0.00000000E+00  0.00000000E+00  0.00000000E+00  0.00000000E+00  0.00000000E+00
  0.00000000E+00  0.00000000E+00  0.00000000E+00  0.00000000E+00  1.00000000E+00
  6.89512442E-02  1.15919862E-01  0.00000000E+00  0.00000000E+00  2.55192759E-01
 -6.89512442E-02 -1.15919862E-01  0.00000000E+00  0.00000000E+00  2.55192759E-01
  0.00000000E+00  0.00000000E+00  0.00000000E+00  3.12250226E-17  0.00000000E+00
  0.00000000E+00  0.00000000E+00  0.00000000E+00  0.00000000E+00  1.00000000E+00
  0.00000000E+00  0.00000000E+00  2.59298652E-01  0.00000000E+00  0.00000000E+00
  0.00000000E+00  0.00000000E+00  2.59298652E-01  0.00000000E+00  0.00000000E+00
  0.00000000E+00 -1.90819582E-17  0.00000000E+00  0.00000000E+00  0.00000000E+00
  0.00000000E+00  0.00000000E+00  0.00000000E+00  0.00000000E+00  0.00000000E+00
  1.00000000E+00  0.00000000E+00  0.00000000E+00  0.00000000E+00  2.59298652E-01
  0.00000000E+00  0.00000000E+00  0.00000000E+00  0.00000000E+00  2.59298652E-01
  0.00000000E+00  0.00000000E+00  0.00000000E+00 -1.90819582E-17  0.00000000E+00
  0.00000000E+00  0.00000000E+00  0.00000000E+00  0.00000000E+00  0.00000000E+00
  0.00000000E+00  0.00000000E+00  1.00000000E+00  0.00000000E+00  0.00000000E+00
  0.00000000E+00  0.00000000E+00  0.00000000E+00  0.00000000E+00  0.00000000E+00
  0.00000000E+00  0.00000000E+00  0.00000000E+00  0.00000000E+00  0.00000000E+00
  0.00000000E+00  0.00000000E+00  0.00000000E+00  0.00000000E+00  0.00000000E+00
  0.00000000E+00  0.00000000E+00  0.00000000E+00  0.00000000E+00  0.00000000E+00
  1.00000000E+00  0.00000000E+00  0.00000000E+00  0.00000000E+00  0.00000000E+00
  0.00000000E+00  0.00000000E+00  0.00000000E+00  0.00000000E+00  0.00000000E+00
  0.00000000E+00  0.00000000E+00  0.00000000E+00  0.00000000E+00  0.00000000E+00
  0.00000000E+00  0.00000000E+00  0.00000000E+00  0.00000000E+00  0.00000000E+00
  0.00000000E+00  0.00000000E+00  0.00000000E+00  0.00000000E+00  1.00000000E+00
  0.00000000E+00  0.00000000E+00 -8.32667268E-17  0.00000000E+00  0.00000000E+00
  0.00000000E+00  0.00000000E+00 -8.32667268E-17  0.00000000E+00  0.00000000E+00
  0.00000000E+00  2.60208521E-17  0.00000000E+00  0.00000000E+00  0.00000000E+00
  0.00000000E+00  0.00000000E+00  0.00000000E+00  0.00000000E+00  0.00000000E+00
 -3.88578059E-16  0.00000000E+00  0.00000000E+00  0.00000000E+00  1.00000000E+00
  0.00000000E+00  0.00000000E+00  0.00000000E+00  8.32667268E-17  0.00000000E+00
  0.00000000E+00  0.00000000E+00  0.00000000E+00  8.32667268E-17  0.00000000E+00
  0.00000000E+00  0.00000000E+00 -2.60208521E-17  0.00000000E+00  0.00000000E+00
  0.00000000E+00  0.00000000E+00  0.00000000E+00  0.00000000E+00  0.00000000E+00
  0.00000000E+00  3.88578059E-16  0.00000000E+00  0.00000000E+00  0.00000000E+00
  1.00000000E+00  6.55526016E-02 -2.91475011E-02  0.00000000E+00  0.00000000E+00
 -1.90776002E-02  6.55526016E-02 -2.91475011E-02  0.00000000E+00  0.00000000E+00
  1.90776002E-02 -1.11022302E-16  0.00000000E+00  0.00000000E+00  0.00000000E+00
 -1.04083409E-16  0.00000000E+00  0.00000000E+00  0.00000000E+00  0.00000000E+00
  0.00000000E+00  0.00000000E+00  0.00000000E+00  0.00000000E+00  0.00000000E+00
  0.00000000E+00  0.00000000E+00  1.00000000E+00  0.00000000E+00  0.00000000E+00
  3.81116531E-02  0.00000000E+00  0.00000000E+00  0.00000000E+00  0.00000000E+00
 -3.81116531E-02  0.00000000E+00  0.00000000E+00  0.00000000E+00  0.00000000E+00
  0.00000000E+00  0.00000000E+00  0.00000000E+00 -3.46944695E-18  0.00000000E+00
  0.00000000E+00  0.00000000E+00  0.00000000E+00  0.00000000E+00  0.00000000E+00
  0.00000000E+00  0.00000000E+00  0.00000000E+00  0.00000000E+00  0.00000000E+00
  1.00000000E+00  0.00000000E+00  0.00000000E+00  0.00000000E+00  3.81116531E-02
  0.00000000E+00  0.00000000E+00  0.00000000E+00  0.00000000E+00 -3.81116531E-02
  0.00000000E+00  0.00000000E+00  0.00000000E+00  0.00000000E+00  0.00000000E+00
  0.00000000E+00  0.00000000E+00 -3.46944695E-18  0.00000000E+00  0.00000000E+00
  0.00000000E+00  0.00000000E+00  0.00000000E+00  0.00000000E+00  0.00000000E+00
  0.00000000E+00  0.00000000E+00  0.00000000E+00  0.00000000E+00  1.00000000E+00
  0.00000000E+00  0.00000000E+00  0.00000000E+00  0.00000000E+00  0.00000000E+00
  0.00000000E+00  0.00000000E+00  0.00000000E+00  0.00000000E+00  0.00000000E+00
  0.00000000E+00  0.00000000E+00  0.00000000E+00  0.00000000E+00  0.00000000E+00
  0.00000000E+00  0.00000000E+00  1.56125113E-16  0.00000000E+00  0.00000000E+00
  0.00000000E+00  0.00000000E+00  0.00000000E+00  0.00000000E+00  0.00000000E+00
  0.00000000E+00  1.11022302E-16  0.00000000E+00  0.00000000E+00  1.00000000E+00
  0.00000000E+00  0.00000000E+00  0.00000000E+00  0.00000000E+00  0.00000000E+00
  0.00000000E+00  0.00000000E+00  0.00000000E+00  0.00000000E+00  0.00000000E+00
  0.00000000E+00  0.00000000E+00  0.00000000E+00  0.00000000E+00  0.00000000E+00
  0.00000000E+00  0.00000000E+00  0.00000000E+00  3.46944695E-18  0.00000000E+00
  0.00000000E+00  0.00000000E+00  0.00000000E+00  0.00000000E+00  0.00000000E+00
  0.00000000E+00  0.00000000E+00  0.00000000E+00  0.00000000E+00  0.00000000E+00
  1.00000000E+00  0.00000000E+00  0.00000000E+00 -5.55111512E-17  0.00000000E+00
  0.00000000E+00  0.00000000E+00  0.00000000E+00  5.55111512E-17  0.00000000E+00
  0.00000000E+00  0.00000000E+00  0.00000000E+00  0.00000000E+00  0.00000000E+00
  0.00000000E+00 -3.46944695E-18  0.00000000E+00  0.00000000E+00  0.00000000E+00
  0.00000000E+00  0.00000000E+00  0.00000000E+00  0.00000000E+00  0.00000000E+00
  0.00000000E+00  0.00000000E+00  0.00000000E+00 -2.77555756E-16  0.00000000E+00
  0.00000000E+00  0.00000000E+00  1.00000000E+00  0.00000000E+00  0.00000000E+00
  0.00000000E+00  5.55111512E-17  0.00000000E+00  0.00000000E+00  0.00000000E+00
  0.00000000E+00 -5.55111512E-17  0.00000000E+00  0.00000000E+00  0.00000000E+00
  0.00000000E+00  0.00000000E+00  0.00000000E+00  0.00000000E+00  3.46944695E-18
  0.00000000E+00  0.00000000E+00  0.00000000E+00  0.00000000E+00  0.00000000E+00
  0.00000000E+00  0.00000000E+00  0.00000000E+00  0.00000000E+00  0.00000000E+00
  0.00000000E+00  2.77555756E-16  0.00000000E+00  0.00000000E+00  0.00000000E+00
  1.00000000E+00 -1.73472348E-18 -5.55111512E-17  0.00000000E+00  0.00000000E+00
  0.00000000E+00 -1.73472348E-18 -5.55111512E-17  0.00000000E+00  0.00000000E+00
  0.00000000E+00  0.00000000E+00  0.00000000E+00  0.00000000E+00  0.00000000E+00
  1.23165367E-16  0.00000000E+00  0.00000000E+00  0.00000000E+00  0.00000000E+00
  0.00000000E+00  0.00000000E+00  0.00000000E+00  0.00000000E+00  0.00000000E+00
  0.00000000E+00  0.00000000E+00  0.00000000E+00  0.00000000E+00  0.00000000E+00
  4.16333634E-17  0.00000000E+00  0.00000000E+00  0.00000000E+00  1.00000000E+00
  0.00000000E+00  0.00000000E+00  0.00000000E+00  0.00000000E+00  0.00000000E+00
  0.00000000E+00  0.00000000E+00  0.00000000E+00  0.00000000E+00  0.00000000E+00
  0.00000000E+00  0.00000000E+00  0.00000000E+00  0.00000000E+00  0.00000000E+00
  0.00000000E+00  0.00000000E+00  0.00000000E+00  0.00000000E+00  0.00000000E+00
  0.00000000E+00  0.00000000E+00  0.00000000E+00  0.00000000E+00  0.00000000E+00
  0.00000000E+00  0.00000000E+00  0.00000000E+00  0.00000000E+00  0.00000000E+00
  0.00000000E+00  0.00000000E+00  0.00000000E+00  0.00000000E+00  1.00000000E+00
Core Hamiltonian Matrix                    R   N=         630
 -2.78156075E+01 -6.35631987E+00 -1.01273267E+01  0.00000000E+00  0.00000000E+00
 -9.01445672E+00  0.00000000E+00  0.00000000E+00  0.00000000E+00 -9.01445672E+00
  1.46925049E-01  8.09512157E-01  0.00000000E+00  0.00000000E+00 -9.43230362E+00
 -4.46389206E-04 -2.59710782E-01  0.00000000E+00  0.00000000E+00  6.68591588E-01
 -2.78156075E+01 -2.59710782E-01 -1.51238875E+00  0.00000000E+00  0.00000000E+00
  2.33328352E+00 -6.35631987E+00 -1.01273267E+01  0.00000000E+00  0.00000000E+00
 -7.33924363E-01  0.00000000E+00  0.00000000E+00  0.00000000E+00  0.00000000E+00
 -9.01445672E+00  0.00000000E+00  0.00000000E+00  0.00000000E+00 -7.33924363E-01
  0.00000000E+00  0.00000000E+00  0.00000000E+00  0.00000000E+00 -9.01445672E+00
 -6.68591588E-01 -2.33328352E+00  0.00000000E+00  0.00000000E+00  3.12738285E+00
 -1.46925049E-01 -8.09512157E-01  0.00000000E+00  0.00000000E+00 -9.43230362E+00
 -6.06202762E-01 -2.38353877E+00  0.00000000E+00  0.00000000E+00  3.41518739E+00
 -6.06202762E-01 -2.38353877E+00  0.00000000E+00  0.00000000E+00 -3.41518739E+00
  8.94978411E+00  0.00000000E+00  0.00000000E+00 -1.77496857E+00  0.00000000E+00
  0.00000000E+00  0.00000000E+00  0.00000000E+00 -1.77496857E+00  0.00000000E+00
  0.00000000E+00  0.00000000E+00  6.63734213E-01  0.00000000E+00  0.00000000E+00
  0.00000000E+00 -1.77496857E+00  0.00000000E+00  0.00000000E+00  0.00000000E+00
  0.00000000E+00 -1.77496857E+00  0.00000000E+00  0.00000000E+00  0.00000000E+00
  6.63734213E-01 -2.21887731E+00 -2.03816065E+00  0.00000000E+00  0.00000000E+00
  2.16197333E+00  2.21887731E+00  2.03816065E+00  0.00000000E+00  0.00000000E+00
  2.16197333E+00  0.00000000E+00  0.00000000E+00  0.00000000E+00 -1.06132420E+00
 -1.51690802E+00 -1.69745877E+00  0.00000000E+00  0.00000000E+00 -1.78951796E+00
 -1.51690802E+00 -1.69745877E+00  0.00000000E+00  0.00000000E+00  1.78951796E+00
 -1.68024101E-02  0.00000000E+00  0.00000000E+00  0.00000000E+00 -4.86433206E+00
  0.00000000E+00  0.00000000E+00 -1.95619053E+00  0.00000000E+00  0.00000000E+00
  0.00000000E+00  0.00000000E+00  1.95619053E+00  0.00000000E+00  0.00000000E+00
  0.00000000E+00  0.00000000E+00  0.00000000E+00  0.00000000E+00  0.00000000E+00
 -4.57716820E+00  0.00000000E+00  0.00000000E+00  0.00000000E+00 -1.95619053E+00
  0.00000000E+00  0.00000000E+00  0.00000000E+00  0.00000000E+00  1.95619053E+00
  0.00000000E+00  0.00000000E+00  0.00000000E+00  0.00000000E+00  0.00000000E+00
  0.00000000E+00  0.00000000E+00 -4.57716820E+00  0.00000000E+00  0.00000000E+00
  0.00000000E+00  0.00000000E+00  0.00000000E+00  0.00000000E+00  0.00000000E+00
  0.00000000E+00  0.00000000E+00  0.00000000E+00  0.00000000E+00  0.00000000E+00
  0.00000000E+00  0.00000000E+00  0.00000000E+00  0.00000000E+00  0.00000000E+00
 -4.21965119E+00  0.00000000E+00  0.00000000E+00  0.00000000E+00  0.00000000E+00
  0.00000000E+00  0.00000000E+00  0.00000000E+00  0.00000000E+00  0.00000000E+00
  0.00000000E+00  0.00000000E+00  0.00000000E+00  0.00000000E+00  0.00000000E+00
  0.00000000E+00  0.00000000E+00  0.00000000E+00  0.00000000E+00 -4.21965119E+00
 -1.83847081E+00 -1.19617560E+00  0.00000000E+00  0.00000000E+00 -1.98932737E+00
  1.83847081E+00  1.19617560E+00  0.00000000E+00  0.00000000E+00 -1.98932737E+00
  0.00000000E+00  0.00000000E+00  0.00000000E+00 -6.50274443E-02  0.00000000E+00
  0.00000000E+00  0.00000000E+00  0.00000000E+00  0.00000000E+00 -4.99742572E+00
  0.00000000E+00  0.00000000E+00 -2.04988089E+00  0.00000000E+00  0.00000000E+00
  0.00000000E+00  0.00000000E+00 -2.04988089E+00  0.00000000E+00  0.00000000E+00
  0.00000000E+00 -2.35303789E-02  0.00000000E+00  0.00000000E+00  0.00000000E+00
  0.00000000E+00  0.00000000E+00  0.00000000E+00  0.00000000E+00  0.00000000E+00
 -4.73106805E+00  0.00000000E+00  0.00000000E+00  0.00000000E+00 -2.04988089E+00
  0.00000000E+00  0.00000000E+00  0.00000000E+00  0.00000000E+00 -2.04988089E+00
  0.00000000E+00  0.00000000E+00  0.00000000E+00 -2.35303789E-02  0.00000000E+00
  0.00000000E+00  0.00000000E+00  0.00000000E+00  0.00000000E+00  0.00000000E+00
  0.00000000E+00  0.00000000E+00 -4.73106805E+00  0.00000000E+00  0.00000000E+00
  0.00000000E+00  0.00000000E+00  7.77156117E-16  0.00000000E+00  0.00000000E+00
  0.00000000E+00  0.00000000E+00  7.77156117E-16  0.00000000E+00  0.00000000E+00
  0.00000000E+00  0.00000000E+00  0.00000000E+00  0.00000000E+00  0.00000000E+00
  0.00000000E+00  0.00000000E+00  0.00000000E+00  0.00000000E+00  0.00000000E+00
 -4.36829281E+00  0.00000000E+00  0.00000000E+00  0.00000000E+00  0.00000000E+00
  0.00000000E+00  0.00000000E+00  0.00000000E+00  0.00000000E+00  0.00000000E+00
  0.00000000E+00  0.00000000E+00  0.00000000E+00  0.00000000E+00  0.00000000E+00
  0.00000000E+00  0.00000000E+00  0.00000000E+00  0.00000000E+00  0.00000000E+00
  0.00000000E+00  0.00000000E+00  0.00000000E+00  0.00000000E+00 -4.36829281E+00
  0.00000000E+00  0.00000000E+00 -2.77555756E-16  0.00000000E+00  0.00000000E+00
  0.00000000E+00  0.00000000E+00 -2.77555756E-16  0.00000000E+00  0.00000000E+00
  0.00000000E+00 -1.38777878E-17  0.00000000E+00  0.00000000E+00  0.00000000E+00
  0.00000000E+00  0.00000000E+00  0.00000000E+00  0.00000000E+00  0.00000000E+00
  2.22044605E-16  0.00000000E+00  0.00000000E+00  0.00000000E+00 -4.00553106E+00
  0.00000000E+00  0.00000000E+00  0.00000000E+00  2.77555756E-16  0.00000000E+00
  0.00000000E+00  0.00000000E+00  0.00000000E+00  2.77555756E-16  0.00000000E+00
  0.00000000E+00  0.00000000E+00  1.38777878E-17  0.00000000E+00  0.00000000E+00
  0.00000000E+00  0.00000000E+00  0.00000000E+00  0.00000000E+00  0.00000000E+00
  0.00000000E+00 -3.93876327E-16  0.00000000E+00  0.00000000E+00  0.00000000E+00
 -4.00553106E+00 -1.79100641E+00 -2.31852249E-01  0.00000000E+00  0.00000000E+00
  1.62331312E-01 -1.79100641E+00 -2.31852249E-01  0.00000000E+00  0.00000000E+00
 -1.62331312E-01 -1.21982918E-01  0.00000000E+00  0.00000000E+00  0.00000000E+00
 -8.77098724E-02  0.00000000E+00  0.00000000E+00  3.81639165E-17  0.00000000E+00
  0.00000000E+00  0.00000000E+00  0.00000000E+00  0.00000000E+00  0.00000000E+00
  0.00000000E+00  0.00000000E+00  3.09700128E+01  0.00000000E+00  0.00000000E+00
 -4.59759170E-01  0.00000000E+00  0.00000000E+00  0.00000000E+00  0.00000000E+00
  4.59759170E-01  0.00000000E+00  0.00000000E+00  0.00000000E+00  0.00000000E+00
  0.00000000E+00  0.00000000E+00  0.00000000E+00 -4.79047838E-02  0.00000000E+00
  0.00000000E+00  0.00000000E+00  0.00000000E+00  0.00000000E+00  0.00000000E+00
  0.00000000E+00  0.00000000E+00  0.00000000E+00  0.00000000E+00  0.00000000E+00
  3.14461002E+01  0.00000000E+00  0.00000000E+00  0.00000000E+00 -4.59759170E-01
  0.00000000E+00  0.00000000E+00  0.00000000E+00  0.00000000E+00  4.59759170E-01
  0.00000000E+00  0.00000000E+00  0.00000000E+00  0.00000000E+00  0.00000000E+00
  0.00000000E+00  0.00000000E+00 -4.79047838E-02  0.00000000E+00  0.00000000E+00
  0.00000000E+00  0.00000000E+00  0.00000000E+00  0.00000000E+00  0.00000000E+00
  0.00000000E+00  0.00000000E+00  0.00000000E+00  0.00000000E+00  3.14461002E+01
  1.11022302E-16  0.00000000E+00  0.00000000E+00  0.00000000E+00  8.88178420E-16
  1.11022302E-16  0.00000000E+00  0.00000000E+00  0.00000000E+00 -8.88178420E-16
  0.00000000E+00  0.00000000E+00  0.00000000E+00  0.00000000E+00  0.00000000E+00
  0.00000000E+00  0.00000000E+00 -2.13911332E-02  0.00000000E+00  0.00000000E+00
  0.00000000E+00  0.00000000E+00  0.00000000E+00  0.00000000E+00  0.00000000E+00
  0.00000000E+00  0.00000000E+00  0.00000000E+00  0.00000000E+00  3.22139517E+01
  0.00000000E+00  0.00000000E+00  0.00000000E+00  0.00000000E+00  0.00000000E+00
  0.00000000E+00  0.00000000E+00  0.00000000E+00  0.00000000E+00  0.00000000E+00
  0.00000000E+00  0.00000000E+00  0.00000000E+00  0.00000000E+00  0.00000000E+00
  0.00000000E+00  0.00000000E+00  0.00000000E+00 -2.13911332E-02  0.00000000E+00
  0.00000000E+00  0.00000000E+00  0.00000000E+00  0.00000000E+00  0.00000000E+00
  0.00000000E+00  0.00000000E+00  0.00000000E+00  0.00000000E+00  0.00000000E+00
  3.22139517E+01  0.00000000E+00  0.00000000E+00 -4.99600361E-16  0.00000000E+00
  0.00000000E+00  0.00000000E+00  0.00000000E+00  4.99600361E-16  0.00000000E+00
  0.00000000E+00  0.00000000E+00  0.00000000E+00  0.00000000E+00  0.00000000E+00
  0.00000000E+00  2.01227923E-16  0.00000000E+00  0.00000000E+00  0.00000000E+00
  0.00000000E+00  0.00000000E+00  0.00000000E+00  0.00000000E+00  0.00000000E+00
  0.00000000E+00  0.00000000E+00  0.00000000E+00  4.44089210E-16  0.00000000E+00
  0.00000000E+00  0.00000000E+00  3.30104007E+01  0.00000000E+00  0.00000000E+00
  0.00000000E+00  4.99600361E-16  0.00000000E+00  0.00000000E+00  0.00000000E+00
  0.00000000E+00 -4.99600361E-16  0.00000000E+00  0.00000000E+00  0.00000000E+00
  0.00000000E+00  0.00000000E+00  0.00000000E+00  0.00000000E+00 -2.01227923E-16
  0.00000000E+00  0.00000000E+00  0.00000000E+00  0.00000000E+00  0.00000000E+00
  0.00000000E+00  0.00000000E+00  0.00000000E+00  0.00000000E+00  0.00000000E+00
  0.00000000E+00  1.36599347E-15  0.00000000E+00  0.00000000E+00  0.00000000E+00
  3.30104007E+01  2.22044605E-16 -3.05311332E-16  0.00000000E+00  0.00000000E+00
  5.44009282E-15  2.22044605E-16 -3.05311332E-16  0.00000000E+00  0.00000000E+00
 -5.44009282E-15 -9.76996262E-15  0.00000000E+00  0.00000000E+00  0.00000000E+00
  5.03069808E-16  0.00000000E+00  0.00000000E+00 -2.25514052E-16  0.00000000E+00
  0.00000000E+00  0.00000000E+00  0.00000000E+00  0.00000000E+00  0.00000000E+00
  0.00000000E+00  0.00000000E+00  2.48689958E-14  0.00000000E+00  0.00000000E+00
 -4.44089210E-15  0.00000000E+00  0.00000000E+00  0.00000000E+00  3.37483927E+01
  0.00000000E+00  0.00000000E+00  0.00000000E+00  0.00000000E+00  0.00000000E+00
  0.00000000E+00  0.00000000E+00  0.00000000E+00  0.00000000E+00  0.00000000E+00
  0.00000000E+00  0.00000000E+00  0.00000000E+00  0.00000000E+00  0.00000000E+00
  0.00000000E+00  0.00000000E+00  0.00000000E+00  0.00000000E+00  0.00000000E+00
  0.00000000E+00  0.00000000E+00  0.00000000E+00  0.00000000E+00  0.00000000E+00
  0.00000000E+00  0.00000000E+00  0.00000000E+00  0.00000000E+00  0.00000000E+00
  0.00000000E+00  0.00000000E+00  0.00000000E+00  0.00000000E+00  3.37483927E+01
Orbital Coefficients CCMAN2 Alpha          R   N=        1225
 -7.02332630E-01 -1.81929469E-02  1.17129968E-16 -2.33691975E-16 -3.12616656E-04
 -7.02332630E-01 -1.81929469E-02 -9.94229793E-17  2.86656089E-16  3.12616656E-04
 -3.53433974E-04 -3.89390408E-17 -4.38121946E-17  6.45637856E-17  4.97790418E-17
  3.14509015E-16  5.11738718E-04 -1.38372505E-16  7.52864290E-05 -9.70322422E-17
  2.36549238E-17 -4.56858491E-17  2.92617421E-17  5.22837454E-18 -5.57585270E-16
  2.80207819E-17  4.13811653E-17  5.44815179E-17 -1.99513617E-16  5.06971042E-18
 -2.99107768E-04 -7.66519356E-17 -9.14654510E-07 -2.76537423E-17 -1.22097151E-09
  7.02736398E-01  1.79914696E-02  1.13614042E-16  3.89866883E-18  2.26521140E-04
 -7.02736398E-01 -1.79914696E-02  2.20698798E-17 -9.44377873E-17  2.26521140E-04
  3.33647617E-16 -7.21639374E-17 -1.24278897E-16  9.16630923E-05 -2.14631917E-17
  4.43468117E-18 -4.28634233E-16 -4.58377067E-17 -1.59489889E-16  1.23632887E-17
  9.97747778E-17  1.72464826E-16  1.58621680E-04  1.85069299E-16 -2.64673226E-04
 -6.59275649E-17 -3.79006202E-18 -5.55637057E-17  6.22945188E-17 -2.34339789E-16
  3.09458772E-16  4.44769544E-17 -6.34637253E-17  2.14210986E-17  3.60571170E-16
  1.42963876E-01 -4.92365993E-01 -1.19417356E-17  1.76095491E-17  3.71127212E-01
  1.42963876E-01 -4.92365993E-01 -2.64684154E-17  8.40241418E-18 -3.71127212E-01
 -2.86762983E-03  3.04341929E-18  7.99981147E-18  1.01780710E-17 -7.42788523E-17
  3.57595171E-17  6.26603057E-02  3.30745926E-17 -1.45900096E-03 -6.65664724E-19
 -7.91476623E-18  4.24685487E-17 -5.10705808E-19  2.68055689E-18 -5.94843057E-17
 -1.41414629E-17 -2.96216171E-16  3.90633421E-17  1.60768579E-17  1.48615697E-17
 -1.71019884E-03  3.95908290E-17 -4.32922964E-05 -9.69553959E-19 -1.63883829E-09
  1.11045397E-01 -2.69112726E-01  9.60838341E-16 -1.54032421E-14 -2.24055179E-01
  1.11045397E-01 -2.69112726E-01  1.33830536E-15 -1.58091367E-14  2.24055179E-01
 -4.60085018E-04  1.74593287E-17 -2.12830858E-16  2.73010857E-17 -1.38518505E-17
  4.30052103E-16 -7.07455536E-01 -2.18130331E-16  3.98565859E-02 -6.21219727E-17
  3.81220013E-18 -2.18867623E-15  3.86610428E-16  8.89588892E-17 -4.70654999E-17
  7.98280853E-18  3.87060262E-18 -6.30017649E-17 -5.52820198E-19 -4.13676751E-17
 -4.61259331E-03 -3.49944970E-17  3.09110466E-05 -3.85675220E-18  2.69534679E-07
  2.46961363E-16 -9.48969438E-16 -1.48067111E-15  3.52517318E-01 -5.82865946E-16
 -3.64838846E-16  1.23568124E-15 -1.75049964E-15 -3.52517318E-01 -8.18026399E-16
 -2.99843863E-18 -3.37326313E-17 -3.17860040E-17  3.20246467E-17  5.53704220E-16
  7.24912227E-01  4.24925961E-16 -1.60395349E-15 -1.00649271E-17 -1.12874381E-15
  1.70026502E-15 -2.09209447E-15 -2.10550257E-16 -4.12186754E-16  7.30465178E-16
  2.20198108E-16  3.13149153E-18  1.67791067E-05 -1.18066333E-16 -5.37252141E-04
  1.30984607E-17  9.57796471E-17  2.68881492E-18 -2.16404334E-18  9.18943476E-20
  2.88148781E-15 -7.53298663E-15  3.58884106E-16  6.58451422E-01 -5.87238519E-15
  2.33617071E-15 -5.21558391E-15 -1.46771086E-16  6.58451422E-01  4.76334565E-15
 -1.21620490E-17 -1.68384330E-17  8.99863136E-03  4.43751647E-17 -1.85920093E-16
  1.50349998E-14 -1.68220086E-14  1.85746306E-15  1.01542876E-15  2.52344912E-03
  4.20161257E-16  9.31905251E-02  3.63109087E-16  2.08456504E-18  5.08251425E-16
 -1.91673416E-16 -1.60375520E-17 -7.65213696E-17 -5.02639520E-17 -1.07937133E-17
 -1.15886781E-16  2.09519206E-17  7.60535632E-19  2.22175561E-18  7.10349808E-21
 -1.91058224E-16  6.74288246E-16  6.66704421E-01  7.10778150E-16  3.74573394E-16
 -1.98053882E-16  3.37899201E-16  6.66704421E-01 -9.62955025E-16 -4.37402204E-16
  1.13352739E-17  1.03470278E-02  5.69465165E-17 -8.67184311E-18 -1.29538227E-16
  1.77474408E-15  1.21025981E-15 -1.02198748E-15 -8.61284133E-17 -1.25450477E-16
  2.20904539E-16 -6.53865630E-17 -7.02750804E-16  6.39950571E-02  6.12651088E-17
  2.97183489E-03 -2.28645925E-18  1.98676115E-17  3.21739463E-17  3.64887048E-18
  2.24673928E-17 -5.08643080E-17  5.52158015E-20 -4.40866756E-18  3.08935035E-21
 -5.07776074E-03  1.66060067E-02  1.65002268E-17  6.03884104E-16  1.68168824E-02
 -5.07776074E-03  1.66060067E-02 -6.44354011E-16  2.54372475E-16 -1.68168824E-02
 -2.95524622E-05 -1.83322461E-17  1.98607461E-17  1.14608821E-17 -3.74518381E-15
 -8.26370182E-17  1.65264911E-02 -2.24130131E-16  9.99102919E-01 -3.46663328E-16
 -9.47806731E-16 -3.98277809E-16 -1.04985118E-16 -1.58079606E-16  3.05645362E-18
 -2.25892987E-16 -4.78793104E-18 -4.86815454E-18  7.11936421E-19 -1.33930761E-17
  3.43225487E-04 -6.31836460E-18  3.21102388E-04 -1.67853609E-17  6.80168522E-06
 -6.38191906E-02  4.62530499E-01 -7.72549242E-16 -1.62370139E-16  5.14861363E-01
 -6.38191906E-02  4.62530499E-01  5.02901709E-16 -1.42168645E-17 -5.14861363E-01
 -3.72730273E-03  1.50457822E-18 -2.12169345E-18  3.15911870E-16 -2.76626506E-17
  1.41250155E-16 -8.27372795E-01  5.66856420E-16 -1.42327310E-02 -5.49671144E-16
  6.89689231E-17  2.90383857E-16  2.14041822E-14  3.18767667E-16  8.30878986E-16
 -2.40029204E-16 -6.31845129E-18 -2.19414261E-17 -7.50789634E-17 -4.83365926E-17
  1.07366317E-02 -9.94415996E-18 -3.97200326E-05 -3.57014422E-18 -8.46146404E-08
  2.34548125E-02 -1.50138351E-01  9.48884125E-17  6.00644019E-17  2.57744713E-01
  2.34548125E-02 -1.50138351E-01 -1.79140855E-17 -3.41540918E-17 -2.57744713E-01
  1.11215819E+00 -2.67969721E-16  1.81749770E-16  6.40781098E-16  3.72603560E-17
 -3.10498886E-17 -6.86655769E-02 -6.81588084E-17 -8.48531091E-06 -1.44007249E-17
  4.92087321E-17 -7.18146029E-17 -1.14377007E-16 -5.51529591E-17  1.23511861E-16
  4.38466257E-19 -1.33962908E-16 -2.11660643E-16 -1.64228384E-17  2.07114110E-16
  8.46140842E-03 -7.11974237E-17 -2.26762447E-05 -1.32686419E-17 -4.95857340E-10
  7.59264904E-02 -4.53935195E-02  7.09644460E-16 -1.82086585E-15 -1.61117292E-02