Jobname.Temp
SP        R                             non-standard        
Number of atoms                            I                3
Charge                                     I                0
Multiplicity                               I                1
Number of electrons                        I               14
Number of alpha electrons                  I                7
Number of beta electrons                   I                7
Atomic numbers                             I   N=           3
           7           7           0
Current cartesian coordinates              R   N=           9
  0.00000000E+00  0.00000000E+00  1.03900000E+00  0.00000000E+00  0.00000000E+00
 -1.03900000E+00  0.00000000E+00  0.00000000E+00  0.00000000E+00
Nuclear charges                            R   N=           3
  7.00000000E+00  7.00000000E+00  0.00000000E+00
Number of basis functions                  I               43
Number of contracted shells                I               15
Number of primitive shells                 I               34
Highest angular momentum                   I                4
Largest degree of contraction              I                6
Shell types                                I   N=          15
           0           0           0           1           1           0
           0           0           1           1           0           1
          -2          -3          -4
Number of primitives per shell             I   N=          15
           6           2           1           2           1           6
           2           1           2           1           6           1
           1           1           1
Shell to atom map                          I   N=          15
           1           1           1           1           1           2
           2           2           2           2           3           3
           3           3           3
Primitive exponents                        R   N=          34
  4.15011000E+03  6.20084000E+02  1.41688000E+02  4.03367000E+01  1.30267000E+01
  4.47003000E+00  5.42522000E+00  1.14915000E+00  2.83205000E-01  5.42522000E+00
  1.14915000E+00  2.83205000E-01  4.15011000E+03  6.20084000E+02  1.41688000E+02
  4.03367000E+01  1.30267000E+01  4.47003000E+00  5.42522000E+00  1.14915000E+00
  2.83205000E-01  5.42522000E+00  1.14915000E+00  2.83205000E-01  4.15011000E+03
  6.20084000E+02  1.41688000E+02  4.03367000E+01  1.30267000E+01  4.47003000E+00
  5.42522000E+00  1.87000000E-01  3.49200000E-01  8.34500000E+00
Contraction coefficients                   R   N=          34
  1.84540991E-03  1.41644993E-02  6.86324967E-02  2.28573989E-01  4.66161978E-01
  3.65671983E-01 -4.13300077E-01  1.22441727E+00  1.00000000E+00  2.37972016E-01
  8.58953059E-01  1.00000000E+00  1.84540991E-03  1.41644993E-02  6.86324967E-02
  2.28573989E-01  4.66161978E-01  3.65671983E-01 -4.13300077E-01  1.22441727E+00
  1.00000000E+00  2.37972016E-01  8.58953059E-01  1.00000000E+00  1.84540991E-03
  1.41644993E-02  6.86324967E-02  2.28573989E-01  4.66161978E-01  3.65671983E-01
  1.00000000E+00  1.00000000E+00  1.00000000E+00  1.00000000E+00
Coordinates of each shell                  R   N=          45
  0.00000000E+00  0.00000000E+00  1.03900000E+00  0.00000000E+00  0.00000000E+00
  1.03900000E+00  0.00000000E+00  0.00000000E+00  1.03900000E+00  0.00000000E+00
  0.00000000E+00  1.03900000E+00  0.00000000E+00  0.00000000E+00  1.03900000E+00
  0.00000000E+00  0.00000000E+00 -1.03900000E+00  0.00000000E+00  0.00000000E+00
 -1.03900000E+00  0.00000000E+00  0.00000000E+00 -1.03900000E+00  0.00000000E+00
  0.00000000E+00 -1.03900000E+00  0.00000000E+00  0.00000000E+00 -1.03900000E+00
  0.00000000E+00  0.00000000E+00  0.00000000E+00  0.00000000E+00  0.00000000E+00
  0.00000000E+00  0.00000000E+00  0.00000000E+00  0.00000000E+00  0.00000000E+00
  0.00000000E+00  0.00000000E+00  0.00000000E+00  0.00000000E+00  0.00000000E+00
Overlap Matrix                             R   N=         946
  1.00000000E+00  2.40200747E-01  1.00000000E+00  2.08869845E-01  7.52192071E-01
  1.00000000E+00  0.00000000E+00  0.00000000E+00  0.00000000E+00  1.00000000E+00
  0.00000000E+00  0.00000000E+00  0.00000000E+00  0.00000000E+00  1.00000000E+00
 -7.15408453E-17  0.00000000E+00  0.00000000E+00  0.00000000E+00  0.00000000E+00
  1.00000000E+00  0.00000000E+00  0.00000000E+00  0.00000000E+00  5.16001040E-01
  0.00000000E+00  0.00000000E+00  1.00000000E+00  0.00000000E+00  0.00000000E+00
  0.00000000E+00  0.00000000E+00  5.16001040E-01  0.00000000E+00  0.00000000E+00
  1.00000000E+00 -1.70821127E-17  0.00000000E+00  0.00000000E+00  0.00000000E+00
  0.00000000E+00  5.16001040E-01  0.00000000E+00  0.00000000E+00  1.00000000E+00
  8.76795515E-06  9.13944065E-03  6.47375228E-02  0.00000000E+00  0.00000000E+00
 -2.39350021E-02  0.00000000E+00  0.00000000E+00 -1.37108887E-01  1.00000000E+00
  9.13944065E-03  1.14253642E-01  2.89338908E-01  0.00000000E+00  0.00000000E+00
 -1.87023495E-01  0.00000000E+00  0.00000000E+00 -5.01284254E-01  2.40200747E-01
  1.00000000E+00  6.47375228E-02  2.89338908E-01  5.42562773E-01  0.00000000E+00
  0.00000000E+00 -2.11890652E-01  0.00000000E+00  0.00000000E+00 -5.99992738E-01
  2.08869845E-01  7.52192071E-01  1.00000000E+00  0.00000000E+00  0.00000000E+00
  0.00000000E+00  6.51452382E-02  0.00000000E+00  0.00000000E+00  1.91608952E-01
  0.00000000E+00  0.00000000E+00  0.00000000E+00  0.00000000E+00  0.00000000E+00
  1.00000000E+00  0.00000000E+00  0.00000000E+00  0.00000000E+00  0.00000000E+00
  6.51452382E-02  0.00000000E+00  0.00000000E+00  1.91608952E-01  0.00000000E+00
  0.00000000E+00  0.00000000E+00  0.00000000E+00  0.00000000E+00  1.00000000E+00
  2.39350021E-02  1.87023495E-01  2.11890652E-01  0.00000000E+00  0.00000000E+00
 -2.69175054E-01  0.00000000E+00  0.00000000E+00 -1.87721528E-01  7.15408453E-17
  0.00000000E+00  0.00000000E+00  0.00000000E+00  0.00000000E+00  1.00000000E+00
  0.00000000E+00  0.00000000E+00  0.00000000E+00  1.91608952E-01  0.00000000E+00
  0.00000000E+00  5.42562773E-01  0.00000000E+00  0.00000000E+00  0.00000000E+00
  0.00000000E+00  0.00000000E+00  5.16001040E-01  0.00000000E+00  0.00000000E+00
  1.00000000E+00  0.00000000E+00  0.00000000E+00  0.00000000E+00  0.00000000E+00
  1.91608952E-01  0.00000000E+00  0.00000000E+00  5.42562773E-01  0.00000000E+00
  0.00000000E+00  0.00000000E+00  0.00000000E+00  0.00000000E+00  5.16001040E-01
  0.00000000E+00  0.00000000E+00  1.00000000E+00  1.37108887E-01  5.01284254E-01
  5.99992738E-01  0.00000000E+00  0.00000000E+00 -1.87721528E-01  0.00000000E+00
  0.00000000E+00 -1.20938859E-01  1.70821127E-17  0.00000000E+00  0.00000000E+00
  0.00000000E+00  0.00000000E+00  5.16001040E-01  0.00000000E+00  0.00000000E+00
  1.00000000E+00  2.09250066E-02  1.98642146E-01  1.55836682E-01  0.00000000E+00
  0.00000000E+00 -3.02495672E-01  0.00000000E+00  0.00000000E+00 -1.65092491E-01
  2.09250066E-02  1.98642146E-01  1.55836682E-01  0.00000000E+00  0.00000000E+00
  3.02495672E-01  0.00000000E+00  0.00000000E+00  1.65092491E-01  1.00000000E+00
  0.00000000E+00  0.00000000E+00  0.00000000E+00  1.67901357E-01  0.00000000E+00
  0.00000000E+00  9.29489047E-02  0.00000000E+00  0.00000000E+00  0.00000000E+00
  0.00000000E+00  0.00000000E+00  1.67901357E-01  0.00000000E+00  0.00000000E+00
  9.29489047E-02  0.00000000E+00  0.00000000E+00  0.00000000E+00  1.00000000E+00
  0.00000000E+00  0.00000000E+00  0.00000000E+00  0.00000000E+00  1.67901357E-01
  0.00000000E+00  0.00000000E+00  9.29489047E-02  0.00000000E+00  0.00000000E+00
  0.00000000E+00  0.00000000E+00  0.00000000E+00  1.67901357E-01  0.00000000E+00
  0.00000000E+00  9.29489047E-02  0.00000000E+00  0.00000000E+00  0.00000000E+00
  1.00000000E+00  8.16990001E-02  1.92867683E-01  5.13937470E-02  0.00000000E+00
  0.00000000E+00 -2.24344072E-01  0.00000000E+00  0.00000000E+00  3.89347805E-02
 -8.16990001E-02 -1.92867683E-01 -5.13937470E-02  0.00000000E+00  0.00000000E+00
 -2.24344072E-01  0.00000000E+00  0.00000000E+00  3.89347805E-02  0.00000000E+00
  0.00000000E+00  0.00000000E+00  1.00000000E+00  5.65663886E-02  1.73292985E-01
  1.45032711E-01  0.00000000E+00  0.00000000E+00  2.25758597E-01  0.00000000E+00
  0.00000000E+00  4.60817342E-01  5.65663886E-02  1.73292985E-01  1.45032711E-01
  0.00000000E+00  0.00000000E+00 -2.25758597E-01  0.00000000E+00  0.00000000E+00
 -4.60817342E-01  0.00000000E+00  0.00000000E+00  0.00000000E+00  0.00000000E+00
  1.00000000E+00  0.00000000E+00  0.00000000E+00  0.00000000E+00  2.36930643E-01
  0.00000000E+00  0.00000000E+00  4.54318672E-01  0.00000000E+00  0.00000000E+00
  0.00000000E+00  0.00000000E+00  0.00000000E+00 -2.36930643E-01  0.00000000E+00
  0.00000000E+00 -4.54318672E-01  0.00000000E+00  0.00000000E+00  0.00000000E+00
  0.00000000E+00  0.00000000E+00  0.00000000E+00  0.00000000E+00  1.00000000E+00
  0.00000000E+00  0.00000000E+00  0.00000000E+00  0.00000000E+00  2.36930643E-01
  0.00000000E+00  0.00000000E+00  4.54318672E-01  0.00000000E+00  0.00000000E+00
  0.00000000E+00  0.00000000E+00  0.00000000E+00 -2.36930643E-01  0.00000000E+00
  0.00000000E+00 -4.54318672E-01  0.00000000E+00  0.00000000E+00  0.00000000E+00
  0.00000000E+00  0.00000000E+00  0.00000000E+00  0.00000000E+00  1.00000000E+00
  0.00000000E+00  0.00000000E+00  0.00000000E+00  0.00000000E+00  0.00000000E+00
  0.00000000E+00  0.00000000E+00  0.00000000E+00  0.00000000E+00  0.00000000E+00
  0.00000000E+00  0.00000000E+00  0.00000000E+00  0.00000000E+00  0.00000000E+00
  0.00000000E+00  0.00000000E+00  0.00000000E+00  0.00000000E+00  0.00000000E+00
  0.00000000E+00  0.00000000E+00  0.00000000E+00  0.00000000E+00  0.00000000E+00
  1.00000000E+00  0.00000000E+00  0.00000000E+00  0.00000000E+00  0.00000000E+00
  0.00000000E+00  0.00000000E+00  0.00000000E+00  0.00000000E+00  0.00000000E+00
  0.00000000E+00  0.00000000E+00  0.00000000E+00  0.00000000E+00  0.00000000E+00
  0.00000000E+00  0.00000000E+00  0.00000000E+00  0.00000000E+00  0.00000000E+00
  0.00000000E+00  0.00000000E+00  0.00000000E+00  0.00000000E+00  0.00000000E+00
  0.00000000E+00  0.00000000E+00  1.00000000E+00  6.89512442E-02  1.15919862E-01
  3.59697337E-02  0.00000000E+00  0.00000000E+00  2.55192759E-01  0.00000000E+00
  0.00000000E+00  1.73196710E-01 -6.89512442E-02 -1.15919862E-01 -3.59697337E-02
  0.00000000E+00  0.00000000E+00  2.55192759E-01  0.00000000E+00  0.00000000E+00
  1.73196710E-01  0.00000000E+00  0.00000000E+00  0.00000000E+00  3.12250226E-17
  0.00000000E+00  0.00000000E+00  0.00000000E+00  0.00000000E+00  0.00000000E+00
  1.00000000E+00  0.00000000E+00  0.00000000E+00  0.00000000E+00  2.59298652E-01
  0.00000000E+00  0.00000000E+00  1.59348083E-01  0.00000000E+00  0.00000000E+00
  0.00000000E+00  0.00000000E+00  0.00000000E+00  2.59298652E-01  0.00000000E+00
  0.00000000E+00  1.59348083E-01  0.00000000E+00  0.00000000E+00  0.00000000E+00
 -1.90819582E-17  0.00000000E+00  0.00000000E+00  0.00000000E+00  0.00000000E+00
  0.00000000E+00  0.00000000E+00  0.00000000E+00  0.00000000E+00  1.00000000E+00
  0.00000000E+00  0.00000000E+00  0.00000000E+00  0.00000000E+00  2.59298652E-01
  0.00000000E+00  0.00000000E+00  1.59348083E-01  0.00000000E+00  0.00000000E+00
  0.00000000E+00  0.00000000E+00  0.00000000E+00  2.59298652E-01  0.00000000E+00
  0.00000000E+00  1.59348083E-01  0.00000000E+00  0.00000000E+00  0.00000000E+00
 -1.90819582E-17  0.00000000E+00  0.00000000E+00  0.00000000E+00  0.00000000E+00
  0.00000000E+00  0.00000000E+00  0.00000000E+00  0.00000000E+00  1.00000000E+00
  0.00000000E+00  0.00000000E+00  0.00000000E+00  0.00000000E+00  0.00000000E+00
  0.00000000E+00  0.00000000E+00  0.00000000E+00  0.00000000E+00  0.00000000E+00
  0.00000000E+00  0.00000000E+00  0.00000000E+00  0.00000000E+00  0.00000000E+00
  0.00000000E+00  0.00000000E+00  0.00000000E+00  0.00000000E+00  0.00000000E+00
  0.00000000E+00  0.00000000E+00  0.00000000E+00  0.00000000E+00  0.00000000E+00
  0.00000000E+00  0.00000000E+00  0.00000000E+00  0.00000000E+00  0.00000000E+00
  1.00000000E+00  0.00000000E+00  0.00000000E+00  0.00000000E+00  0.00000000E+00
  0.00000000E+00  0.00000000E+00  0.00000000E+00  0.00000000E+00  0.00000000E+00
  0.00000000E+00  0.00000000E+00  0.00000000E+00  0.00000000E+00  0.00000000E+00
  0.00000000E+00  0.00000000E+00  0.00000000E+00  0.00000000E+00  0.00000000E+00
  0.00000000E+00  0.00000000E+00  0.00000000E+00  0.00000000E+00  0.00000000E+00
  0.00000000E+00  0.00000000E+00  0.00000000E+00  0.00000000E+00  0.00000000E+00
  0.00000000E+00  0.00000000E+00  1.00000000E+00  0.00000000E+00  0.00000000E+00
  0.00000000E+00 -8.32667268E-17  0.00000000E+00  0.00000000E+00  0.00000000E+00
  0.00000000E+00  0.00000000E+00  0.00000000E+00  0.00000000E+00  0.00000000E+00
 -8.32667268E-17  0.00000000E+00  0.00000000E+00  0.00000000E+00  0.00000000E+00
  0.00000000E+00  0.00000000E+00  2.60208521E-17  0.00000000E+00  0.00000000E+00
  0.00000000E+00  0.00000000E+00  0.00000000E+00  0.00000000E+00  0.00000000E+00
  0.00000000E+00 -3.88578059E-16  0.00000000E+00  0.00000000E+00  0.00000000E+00
  1.00000000E+00  0.00000000E+00  0.00000000E+00  0.00000000E+00  0.00000000E+00
  8.32667268E-17  0.00000000E+00  0.00000000E+00  0.00000000E+00  0.00000000E+00
  0.00000000E+00  0.00000000E+00  0.00000000E+00  0.00000000E+00  8.32667268E-17
  0.00000000E+00  0.00000000E+00  0.00000000E+00  0.00000000E+00  0.00000000E+00
  0.00000000E+00 -2.60208521E-17  0.00000000E+00  0.00000000E+00  0.00000000E+00
  0.00000000E+00  0.00000000E+00  0.00000000E+00  0.00000000E+00  0.00000000E+00
  3.88578059E-16  0.00000000E+00  0.00000000E+00  0.00000000E+00  1.00000000E+00
  6.55526016E-02 -2.91475011E-02  2.32784949E-05  0.00000000E+00  0.00000000E+00
 -1.90776002E-02  0.00000000E+00  0.00000000E+00  1.43505075E-04  6.55526016E-02
 -2.91475011E-02  2.32784949E-05  0.00000000E+00  0.00000000E+00  1.90776002E-02
  0.00000000E+00  0.00000000E+00 -1.43505075E-04 -1.11022302E-16  0.00000000E+00
  0.00000000E+00  0.00000000E+00 -1.04083409E-16  0.00000000E+00  0.00000000E+00
  0.00000000E+00  0.00000000E+00  0.00000000E+00  0.00000000E+00  0.00000000E+00
  0.00000000E+00  0.00000000E+00  0.00000000E+00  0.00000000E+00  1.00000000E+00
  0.00000000E+00  0.00000000E+00  0.00000000E+00  3.81116531E-02  0.00000000E+00
  0.00000000E+00  1.33133973E-04  0.00000000E+00  0.00000000E+00  0.00000000E+00
  0.00000000E+00  0.00000000E+00 -3.81116531E-02  0.00000000E+00  0.00000000E+00
 -1.33133973E-04  0.00000000E+00  0.00000000E+00  0.00000000E+00  0.00000000E+00
  0.00000000E+00  0.00000000E+00  0.00000000E+00 -3.46944695E-18  0.00000000E+00
  0.00000000E+00  0.00000000E+00  0.00000000E+00  0.00000000E+00  0.00000000E+00
  0.00000000E+00  0.00000000E+00  0.00000000E+00  0.00000000E+00  0.00000000E+00
  1.00000000E+00  0.00000000E+00  0.00000000E+00  0.00000000E+00  0.00000000E+00
  3.81116531E-02  0.00000000E+00  0.00000000E+00  1.33133973E-04  0.00000000E+00
  0.00000000E+00  0.00000000E+00  0.00000000E+00  0.00000000E+00 -3.81116531E-02
  0.00000000E+00  0.00000000E+00 -1.33133973E-04  0.00000000E+00  0.00000000E+00
  0.00000000E+00  0.00000000E+00  0.00000000E+00  0.00000000E+00  0.00000000E+00
 -3.46944695E-18  0.00000000E+00  0.00000000E+00  0.00000000E+00  0.00000000E+00
  0.00000000E+00  0.00000000E+00  0.00000000E+00  0.00000000E+00  0.00000000E+00
  0.00000000E+00  0.00000000E+00  1.00000000E+00  0.00000000E+00  0.00000000E+00
  0.00000000E+00  0.00000000E+00  0.00000000E+00  0.00000000E+00  0.00000000E+00
  0.00000000E+00  0.00000000E+00  0.00000000E+00  0.00000000E+00  0.00000000E+00
  0.00000000E+00  0.00000000E+00  0.00000000E+00  0.00000000E+00  0.00000000E+00
  0.00000000E+00  0.00000000E+00  0.00000000E+00  0.00000000E+00  0.00000000E+00
  0.00000000E+00  0.00000000E+00  0.00000000E+00  1.56125113E-16  0.00000000E+00
  0.00000000E+00  0.00000000E+00  0.00000000E+00  0.00000000E+00  0.00000000E+00
  0.00000000E+00  0.00000000E+00  1.11022302E-16  0.00000000E+00  0.00000000E+00
  1.00000000E+00  0.00000000E+00  0.00000000E+00  0.00000000E+00  0.00000000E+00
  0.00000000E+00  0.00000000E+00  0.00000000E+00  0.00000000E+00  0.00000000E+00
  0.00000000E+00  0.00000000E+00  0.00000000E+00  0.00000000E+00  0.00000000E+00
  0.00000000E+00  0.00000000E+00  0.00000000E+00  0.00000000E+00  0.00000000E+00
  0.00000000E+00  0.00000000E+00  0.00000000E+00  0.00000000E+00  0.00000000E+00
  0.00000000E+00  0.00000000E+00  3.46944695E-18  0.00000000E+00  0.00000000E+00
  0.00000000E+00  0.00000000E+00  0.00000000E+00  0.00000000E+00  0.00000000E+00
  0.00000000E+00  0.00000000E+00  0.00000000E+00  0.00000000E+00  1.00000000E+00
  0.00000000E+00  0.00000000E+00  0.00000000E+00 -5.55111512E-17  0.00000000E+00
  0.00000000E+00 -1.73472348E-18  0.00000000E+00  0.00000000E+00  0.00000000E+00
  0.00000000E+00  0.00000000E+00  5.55111512E-17  0.00000000E+00  0.00000000E+00
  1.73472348E-18  0.00000000E+00  0.00000000E+00  0.00000000E+00  0.00000000E+00
  0.00000000E+00  0.00000000E+00  0.00000000E+00 -3.46944695E-18  0.00000000E+00
  0.00000000E+00  0.00000000E+00  0.00000000E+00  0.00000000E+00  0.00000000E+00
  0.00000000E+00  0.00000000E+00  0.00000000E+00  0.00000000E+00  0.00000000E+00
 -2.77555756E-16  0.00000000E+00  0.00000000E+00  0.00000000E+00  1.00000000E+00
  0.00000000E+00  0.00000000E+00  0.00000000E+00  0.00000000E+00  5.55111512E-17
  0.00000000E+00  0.00000000E+00  1.73472348E-18  0.00000000E+00  0.00000000E+00
  0.00000000E+00  0.00000000E+00  0.00000000E+00 -5.55111512E-17  0.00000000E+00
  0.00000000E+00 -1.73472348E-18  0.00000000E+00  0.00000000E+00  0.00000000E+00
  0.00000000E+00  0.00000000E+00  0.00000000E+00  0.00000000E+00  3.46944695E-18
  0.00000000E+00  0.00000000E+00  0.00000000E+00  0.00000000E+00  0.00000000E+00
  0.00000000E+00  0.00000000E+00  0.00000000E+00  0.00000000E+00  0.00000000E+00
  0.00000000E+00  2.77555756E-16  0.00000000E+00  0.00000000E+00  0.00000000E+00
  1.00000000E+00 -1.73472348E-18 -5.55111512E-17  0.00000000E+00  0.00000000E+00
  0.00000000E+00  0.00000000E+00  0.00000000E+00  0.00000000E+00 -5.55111512E-17
 -1.73472348E-18 -5.55111512E-17  0.00000000E+00  0.00000000E+00  0.00000000E+00
  0.00000000E+00  0.00000000E+00  0.00000000E+00  5.55111512E-17  0.00000000E+00
  0.00000000E+00  0.00000000E+00  0.00000000E+00  1.23165367E-16  0.00000000E+00
  0.00000000E+00  0.00000000E+00  0.00000000E+00  0.00000000E+00  0.00000000E+00
  0.00000000E+00  0.00000000E+00  0.00000000E+00  0.00000000E+00  0.00000000E+00
  0.00000000E+00  0.00000000E+00  0.00000000E+00  4.16333634E-17  0.00000000E+00
  0.00000000E+00  0.00000000E+00  1.00000000E+00  0.00000000E+00  0.00000000E+00
  0.00000000E+00  0.00000000E+00  0.00000000E+00  0.00000000E+00  0.00000000E+00
  0.00000000E+00  0.00000000E+00  0.00000000E+00  0.00000000E+00  0.00000000E+00
  0.00000000E+00  0.00000000E+00  0.00000000E+00  0.00000000E+00  0.00000000E+00
  0.00000000E+00  0.00000000E+00  0.00000000E+00  0.00000000E+00  0.00000000E+00
  0.00000000E+00  0.00000000E+00  0.00000000E+00  0.00000000E+00  0.00000000E+00
  0.00000000E+00  0.00000000E+00  0.00000000E+00  0.00000000E+00  0.00000000E+00
  0.00000000E+00  0.00000000E+00  0.00000000E+00  0.00000000E+00  0.00000000E+00
  0.00000000E+00  0.00000000E+00  0.00000000E+00  0.00000000E+00  0.00000000E+00
  1.00000000E+00
Core Hamiltonian Matrix                    R   N=         946
 -2.78156075E+01 -6.35631987E+00 -1.01273267E+01 -5.64759175E+00 -8.03129932E+00
 -8.79744965E+00  0.00000000E+00  0.00000000E+00  0.00000000E+00 -9.01445672E+00
  0.00000000E+00  0.00000000E+00  0.00000000E+00  0.00000000E+00 -9.01445672E+00
  1.46925049E-01  8.09512157E-01  7.81311538E-01  0.00000000E+00  0.00000000E+00
 -9.43230362E+00  0.00000000E+00  0.00000000E+00  0.00000000E+00 -4.44905252E+00
  0.00000000E+00  0.00000000E+00 -5.96797111E+00  0.00000000E+00  0.00000000E+00
  0.00000000E+00  0.00000000E+00 -4.44905252E+00  0.00000000E+00  0.00000000E+00
 -5.96797111E+00  2.66444745E-02  5.03144741E-01  1.24907647E+00  0.00000000E+00
  0.00000000E+00 -4.84056221E+00  0.00000000E+00  0.00000000E+00 -7.14711561E+00
 -4.46389206E-04 -2.59710782E-01 -1.76408923E+00  0.00000000E+00  0.00000000E+00
  6.68591588E-01  0.00000000E+00  0.00000000E+00  3.71902206E+00 -2.78156075E+01
 -2.59710782E-01 -1.51238875E+00 -3.33131020E+00  0.00000000E+00  0.00000000E+00
  2.33328352E+00  0.00000000E+00  0.00000000E+00  5.50511638E+00 -6.35631987E+00
 -1.01273267E+01 -1.76408923E+00 -3.33131020E+00 -5.20915662E+00  0.00000000E+00
  0.00000000E+00  2.49896281E+00  0.00000000E+00  0.00000000E+00  5.59062198E+00
 -5.64759175E+00 -8.03129932E+00 -8.79744965E+00  0.00000000E+00  0.00000000E+00
  0.00000000E+00 -7.33924363E-01  0.00000000E+00  0.00000000E+00 -1.78130782E+00
  0.00000000E+00  0.00000000E+00  0.00000000E+00  0.00000000E+00  0.00000000E+00
 -9.01445672E+00  0.00000000E+00  0.00000000E+00  0.00000000E+00  0.00000000E+00
 -7.33924363E-01  0.00000000E+00  0.00000000E+00 -1.78130782E+00  0.00000000E+00
  0.00000000E+00  0.00000000E+00  0.00000000E+00  0.00000000E+00 -9.01445672E+00
 -6.68591588E-01 -2.33328352E+00 -2.49896281E+00  0.00000000E+00  0.00000000E+00
  3.12738285E+00  0.00000000E+00  0.00000000E+00  2.21142157E+00 -1.46925049E-01
 -8.09512157E-01 -7.81311538E-01  0.00000000E+00  0.00000000E+00 -9.43230362E+00
  0.00000000E+00  0.00000000E+00  0.00000000E+00 -1.78130782E+00  0.00000000E+00
  0.00000000E+00 -3.54610395E+00  0.00000000E+00  0.00000000E+00  0.00000000E+00
  0.00000000E+00  0.00000000E+00 -4.44905252E+00  0.00000000E+00  0.00000000E+00
 -5.96797111E+00  0.00000000E+00  0.00000000E+00  0.00000000E+00  0.00000000E+00
 -1.78130782E+00  0.00000000E+00  0.00000000E+00 -3.54610395E+00  0.00000000E+00
  0.00000000E+00  0.00000000E+00  0.00000000E+00  0.00000000E+00 -4.44905252E+00
  0.00000000E+00  0.00000000E+00 -5.96797111E+00 -3.71902206E+00 -5.50511638E+00
 -5.59062198E+00  0.00000000E+00  0.00000000E+00  2.21142157E+00  0.00000000E+00
  0.00000000E+00  1.42002947E+00 -2.66444745E-02 -5.03144741E-01 -1.24907647E+00
  0.00000000E+00  0.00000000E+00 -4.84056221E+00  0.00000000E+00  0.00000000E+00
 -7.14711561E+00 -6.06202762E-01 -2.38353877E+00 -2.00033410E+00  0.00000000E+00
  0.00000000E+00  3.41518739E+00  0.00000000E+00  0.00000000E+00  2.01420707E+00
 -6.06202762E-01 -2.38353877E+00 -2.00033410E+00  0.00000000E+00  0.00000000E+00
 -3.41518739E+00  0.00000000E+00  0.00000000E+00 -2.01420707E+00  8.94978411E+00
  0.00000000E+00  0.00000000E+00  0.00000000E+00 -1.77496857E+00  0.00000000E+00
  0.00000000E+00 -1.04196268E+00  0.00000000E+00  0.00000000E+00  0.00000000E+00
  0.00000000E+00  0.00000000E+00 -1.77496857E+00  0.00000000E+00  0.00000000E+00
 -1.04196268E+00  0.00000000E+00  0.00000000E+00  0.00000000E+00  6.63734213E-01
  0.00000000E+00  0.00000000E+00  0.00000000E+00  0.00000000E+00 -1.77496857E+00
  0.00000000E+00  0.00000000E+00 -1.04196268E+00  0.00000000E+00  0.00000000E+00
  0.00000000E+00  0.00000000E+00  0.00000000E+00 -1.77496857E+00  0.00000000E+00
  0.00000000E+00 -1.04196268E+00  0.00000000E+00  0.00000000E+00  0.00000000E+00
  6.63734213E-01 -2.21887731E+00 -2.03816065E+00 -7.40537553E-01  0.00000000E+00
  0.00000000E+00  2.16197333E+00  0.00000000E+00  0.00000000E+00 -5.96939284E-01
  2.21887731E+00  2.03816065E+00  7.40537553E-01  0.00000000E+00  0.00000000E+00
  2.16197333E+00  0.00000000E+00  0.00000000E+00 -5.96939284E-01  0.00000000E+00
  0.00000000E+00  0.00000000E+00 -1.06132420E+00 -1.51690802E+00 -1.69745877E+00
 -1.37376173E+00  0.00000000E+00  0.00000000E+00 -1.78951796E+00  0.00000000E+00
  0.00000000E+00 -2.09851628E+00 -1.51690802E+00 -1.69745877E+00 -1.37376173E+00
  0.00000000E+00  0.00000000E+00  1.78951796E+00  0.00000000E+00  0.00000000E+00
  2.09851628E+00 -1.68024101E-02  0.00000000E+00  0.00000000E+00  0.00000000E+00
 -4.86433206E+00  0.00000000E+00  0.00000000E+00  0.00000000E+00 -1.95619053E+00
  0.00000000E+00  0.00000000E+00 -2.26446326E+00  0.00000000E+00  0.00000000E+00
  0.00000000E+00  0.00000000E+00  0.00000000E+00  1.95619053E+00  0.00000000E+00
  0.00000000E+00  2.26446326E+00  0.00000000E+00  0.00000000E+00  0.00000000E+00
  0.00000000E+00  0.00000000E+00  0.00000000E+00  0.00000000E+00 -4.57716820E+00
  0.00000000E+00  0.00000000E+00  0.00000000E+00  0.00000000E+00 -1.95619053E+00
  0.00000000E+00  0.00000000E+00 -2.26446326E+00  0.00000000E+00  0.00000000E+00
  0.00000000E+00  0.00000000E+00  0.00000000E+00  1.95619053E+00  0.00000000E+00
  0.00000000E+00  2.26446326E+00  0.00000000E+00  0.00000000E+00  0.00000000E+00
  0.00000000E+00  0.00000000E+00  0.00000000E+00  0.00000000E+00 -4.57716820E+00
  0.00000000E+00  0.00000000E+00  0.00000000E+00  0.00000000E+00  0.00000000E+00
  0.00000000E+00  0.00000000E+00  0.00000000E+00  0.00000000E+00  0.00000000E+00
  0.00000000E+00  0.00000000E+00  0.00000000E+00  0.00000000E+00  0.00000000E+00
  0.00000000E+00  0.00000000E+00  0.00000000E+00  0.00000000E+00  0.00000000E+00
  0.00000000E+00  0.00000000E+00  0.00000000E+00  0.00000000E+00  0.00000000E+00
 -4.21965119E+00  0.00000000E+00  0.00000000E+00  0.00000000E+00  0.00000000E+00
  0.00000000E+00  0.00000000E+00  0.00000000E+00  0.00000000E+00  0.00000000E+00
  0.00000000E+00  0.00000000E+00  0.00000000E+00  0.00000000E+00  0.00000000E+00
  0.00000000E+00  0.00000000E+00  0.00000000E+00  0.00000000E+00  0.00000000E+00
  0.00000000E+00  0.00000000E+00  0.00000000E+00  0.00000000E+00  0.00000000E+00
  0.00000000E+00  0.00000000E+00 -4.21965119E+00 -1.83847081E+00 -1.19617560E+00
 -6.22236642E-01  0.00000000E+00  0.00000000E+00 -1.98932737E+00  0.00000000E+00
  0.00000000E+00 -1.31386696E+00  1.83847081E+00  1.19617560E+00  6.22236642E-01
  0.00000000E+00  0.00000000E+00 -1.98932737E+00  0.00000000E+00  0.00000000E+00
 -1.31386696E+00  0.00000000E+00  0.00000000E+00  0.00000000E+00 -6.50274443E-02
  0.00000000E+00  0.00000000E+00  0.00000000E+00  0.00000000E+00  0.00000000E+00
 -4.99742572E+00  0.00000000E+00  0.00000000E+00  0.00000000E+00 -2.04988089E+00
  0.00000000E+00  0.00000000E+00 -1.11559468E+00  0.00000000E+00  0.00000000E+00
  0.00000000E+00  0.00000000E+00  0.00000000E+00 -2.04988089E+00  0.00000000E+00
  0.00000000E+00 -1.11559468E+00  0.00000000E+00  0.00000000E+00  0.00000000E+00
 -2.35303789E-02  0.00000000E+00  0.00000000E+00  0.00000000E+00  0.00000000E+00
  0.00000000E+00  0.00000000E+00  0.00000000E+00  0.00000000E+00 -4.73106805E+00
  0.00000000E+00  0.00000000E+00  0.00000000E+00  0.00000000E+00 -2.04988089E+00
  0.00000000E+00  0.00000000E+00 -1.11559468E+00  0.00000000E+00  0.00000000E+00
  0.00000000E+00  0.00000000E+00  0.00000000E+00 -2.04988089E+00  0.00000000E+00
  0.00000000E+00 -1.11559468E+00  0.00000000E+00  0.00000000E+00  0.00000000E+00
 -2.35303789E-02  0.00000000E+00  0.00000000E+00  0.00000000E+00  0.00000000E+00
  0.00000000E+00  0.00000000E+00  0.00000000E+00  0.00000000E+00 -4.73106805E+00
  0.00000000E+00  0.00000000E+00  0.00000000E+00  0.00000000E+00  0.00000000E+00
  7.77156117E-16  0.00000000E+00  0.00000000E+00 -1.11022302E-15  0.00000000E+00
  0.00000000E+00  0.00000000E+00  0.00000000E+00  0.00000000E+00  7.77156117E-16
  0.00000000E+00  0.00000000E+00 -1.11022302E-15  0.00000000E+00  0.00000000E+00
  0.00000000E+00  0.00000000E+00  0.00000000E+00  0.00000000E+00  0.00000000E+00
  0.00000000E+00  0.00000000E+00  0.00000000E+00  0.00000000E+00  0.00000000E+00
 -4.36829281E+00  0.00000000E+00  0.00000000E+00  0.00000000E+00  0.00000000E+00
  0.00000000E+00  0.00000000E+00  0.00000000E+00  0.00000000E+00  0.00000000E+00
  0.00000000E+00  0.00000000E+00  0.00000000E+00  0.00000000E+00  0.00000000E+00
  0.00000000E+00  0.00000000E+00  0.00000000E+00  0.00000000E+00  0.00000000E+00
  0.00000000E+00  0.00000000E+00  0.00000000E+00  0.00000000E+00  0.00000000E+00
  0.00000000E+00  0.00000000E+00  0.00000000E+00  0.00000000E+00  0.00000000E+00
  0.00000000E+00  0.00000000E+00 -4.36829281E+00  0.00000000E+00  0.00000000E+00
  0.00000000E+00 -2.77555756E-16  0.00000000E+00  0.00000000E+00  3.33066907E-16
  0.00000000E+00  0.00000000E+00  0.00000000E+00  0.00000000E+00  0.00000000E+00
 -2.77555756E-16  0.00000000E+00  0.00000000E+00  3.33066907E-16  0.00000000E+00
  0.00000000E+00  0.00000000E+00 -1.38777878E-17  0.00000000E+00  0.00000000E+00
  0.00000000E+00  0.00000000E+00  0.00000000E+00  0.00000000E+00  0.00000000E+00
  0.00000000E+00  2.22044605E-16  0.00000000E+00  0.00000000E+00  0.00000000E+00
 -4.00553106E+00  0.00000000E+00  0.00000000E+00  0.00000000E+00  0.00000000E+00
  2.77555756E-16  0.00000000E+00  0.00000000E+00 -3.33066907E-16  0.00000000E+00
  0.00000000E+00  0.00000000E+00  0.00000000E+00  0.00000000E+00  2.77555756E-16
  0.00000000E+00  0.00000000E+00 -3.33066907E-16  0.00000000E+00  0.00000000E+00
  0.00000000E+00  1.38777878E-17  0.00000000E+00  0.00000000E+00  0.00000000E+00
  0.00000000E+00  0.00000000E+00  0.00000000E+00  0.00000000E+00  0.00000000E+00
 -3.93876327E-16  0.00000000E+00  0.00000000E+00  0.00000000E+00 -4.00553106E+00
 -1.79100641E+00 -2.31852249E-01 -2.57580461E-01  0.00000000E+00  0.00000000E+00
  1.62331312E-01  0.00000000E+00  0.00000000E+00  1.69877062E-01 -1.79100641E+00
 -2.31852249E-01 -2.57580461E-01  0.00000000E+00  0.00000000E+00 -1.62331312E-01
  0.00000000E+00  0.00000000E+00 -1.69877062E-01 -1.21982918E-01  0.00000000E+00
  0.00000000E+00  0.00000000E+00 -8.77098724E-02  0.00000000E+00  0.00000000E+00
  3.81639165E-17  0.00000000E+00  0.00000000E+00  0.00000000E+00  0.00000000E+00
  0.00000000E+00  0.00000000E+00  0.00000000E+00  0.00000000E+00  3.09700128E+01
  0.00000000E+00  0.00000000E+00  0.00000000E+00 -4.59759170E-01  0.00000000E+00
  0.00000000E+00 -4.02601149E-02  0.00000000E+00  0.00000000E+00  0.00000000E+00
  0.00000000E+00  0.00000000E+00  4.59759170E-01  0.00000000E+00  0.00000000E+00
  4.02601149E-02  0.00000000E+00  0.00000000E+00  0.00000000E+00  0.00000000E+00
  0.00000000E+00  0.00000000E+00  0.00000000E+00 -4.79047838E-02  0.00000000E+00