                  Welcome to Q-Chem
     A Quantum Leap Into The Future Of Chemistry


 Q-Chem 5.3 (devel), Q-Chem, Inc., Pleasanton, CA (2020)

 Yihan Shao,  Zhengting Gan,  E. Epifanovsky,  A. T. B. Gilbert,  M. Wormit,  
 J. Kussmann,  A. W. Lange,  A. Behn,  Jia Deng,  Xintian Feng,  D. Ghosh,  
 M. Goldey,  P. R. Horn,  L. D. Jacobson,  I. Kaliman,  T. Kus,  A. Landau,  
 Jie Liu,  E. I. Proynov,  R. M. Richard,  R. P. Steele,  E. J. Sundstrom,  
 H. L. Woodcock III,  P. M. Zimmerman,  D. Zuev,  B. Alam,  B. Albrecht,  
 A. Aldossary,  E. Alguire,  S. A. Baeppler,  D. Barton,  Z. Benda,  
 Y. A. Bernard,  E. J. Berquist,  K. B. Bravaya,  H. Burton,  K. Carter-Fenk,  
 D. Casanova,  Chun-Min Chang,  Yunqing Chen,  A. Chien,  K. D. Closser,  
 M. P. Coons,  S. Coriani,  S. Dasgupta,  A. L. Dempwolff,  M. Diedenhofen,  
 Hainam Do,  R. G. Edgar,  Po-Tung Fang,  S. Faraji,  S. Fatehi,  
 Qingguo Feng,  J. Fosso-Tande,  J. Gayvert,  Qinghui Ge,  A. Ghysels,  
 G. Gidofalvi,  J. Gomes,  J. Gonthier,  S. Gulania,  A. Gunina,  D. Hait,  
 M. W. D. Hanson-Heine,  S. Hammes-Schiffer,  P. H. P. Harbach,  
 A. W. Hauser,  M. F. Herbst,  J. E. Herr,  E. G. Hohenstein,  Z. C. Holden,  
 S. Houck,  Kerwin Hui,  B. C. Huynh,  M. Ivanov,  T.-C. Jagau,  Hyunjun Ji,  
 B. Kaduk,  K. Khistyaev,  Jaehoon Kim,  P. Klunzinger,  K. Koh,  
 D. Kosenkov,  L. Koulias,  T. Kowalczyk,  C. M. Krauter,  A. Kunitsa,  
 Ka Un Lao,  A. Laurent,  K. V. Lawler,  Joonho Lee,  D. Lefrancois,  
 S. Lehtola,  D. S. Levine,  Yi-Pei Li,  You-Sheng Lin,  Fenglai Liu,  
 Kuan-Yu Liu,  E. Livshits,  M. Loipersberger,  A. Luenser,  P. Manohar,  
 E. Mansoor,  S. F. Manzer,  Shan-Ping Mao,  Yuezhi Mao,  N. Mardirossian,  
 A. V. Marenich,  T. Markovich,  L. A. Martinez-Martinez,  S. A. Maurer,  
 N. J. Mayhall,  S. C. McKenzie,  J.-M. Mewes,  P. Morgante,  A. F. Morrison,  
 J. W. Mullinax,  K. Nanda,  T. S. Nguyen-Beck,  R. Olivares-Amaya,  
 K. J. Oosterbaan,  J. A. Parkhill,  S. K. Paul,  F. Pavosevic,  Zheng Pei,  
 T. M. Perrine,  F. Plasser,  P. Pokhilko,  S. Prager,  A. Prociuk,  
 E. Ramos,  B. Rana,  D. R. Rehn,  F. Rob,  E. Rossomme,  M. Scheurer,  
 M. Schneider,  N. Sergueev,  S. M. Sharada,  S. Sharma,  W. Skomorowski,  
 D. W. Small,  T. Stauch,  C. J. Stein,  T. Stein,  Yu-Chuan Su,  
 S. P. Veccham,  Zhen Tao,  A. J. W. Thom,  A. Tkatchenko,  T. Tsuchimochi,  
 N. M. Tubman,  L. Vogt,  M. L. Vidal,  O. Vydrov,  M. A. Watson,  J. Wenzel,  
 M. de Wergifosse,  T. A. Wesolowski,  A. White,  J. Witte,  A. Yamada,  
 Jun Yang,  K. Yao,  S. Yeganeh,  S. R. Yost,  Zhi-Qiang You,  A. Zech,  
 Igor Ying Zhang,  Xing Zhang,  Yan Zhao,  Ying Zhu,  B. R. Brooks,  
 G. K. L. Chan,  C. J. Cramer,  M. S. Gordon,  W. J. Hehre,  A. Klamt,  
 M. W. Schmidt,  C. D. Sherrill,  D. G. Truhlar,  A. Aspuru-Guzik,  R. Baer,  
 A. T. Bell,  N. A. Besley,  Jeng-Da Chai,  A. E. DePrince, III,  
 R. A. DiStasio Jr.,  A. Dreuw,  B. D. Dunietz,  T. R. Furlani,  
 Chao-Ping Hsu,  Yousung Jung,  Jing Kong,  D. S. Lambrecht,  WanZhen Liang,  
 C. Ochsenfeld,  V. A. Rassolov,  L. V. Slipchenko,  J. E. Subotnik,  
 T. Van Voorhis,  J. M. Herbert,  A. I. Krylov,  P. M. W. Gill,  M. Head-Gordon

 Contributors to earlier versions of Q-Chem not listed above: 
 R. D. Adamson,  B. Austin,  J. Baker,  G. J. O. Beran,  K. Brandhorst,  
 S. T. Brown,  E. F. C. Byrd,  A. K. Chakraborty,  C.-L. Cheng,  
 Siu Hung Chien,  D. M. Chipman,  D. L. Crittenden,  H. Dachsel,  
 R. J. Doerksen,  A. D. Dutoi,  L. Fusti-Molnar,  W. A. Goddard III,  
 A. Golubeva-Zadorozhnaya,  S. R. Gwaltney,  G. Hawkins,  A. Heyden,  
 S. Hirata,  G. Kedziora,  F. J. Keil,  C. Kelley,  Jihan Kim,  R. A. King,  
 R. Z. Khaliullin,  P. P. Korambath,  W. Kurlancheek,  A. M. Lee,  M. S. Lee,  
 S. V. Levchenko,  Ching Yeh Lin,  D. Liotard,  R. C. Lochan,  I. Lotan,  
 P. E. Maslen,  N. Nair,  D. P. O'Neill,  D. Neuhauser,  E. Neuscamman,  
 C. M. Oana,  R. Olson,  B. Peters,  R. Peverati,  P. A. Pieniazek,  
 Y. M. Rhee,  J. Ritchie,  M. A. Rohrdanz,  E. Rosta,  N. J. Russ,  
 H. F. Schaefer III,  N. E. Schultz,  N. Shenvi,  A. C. Simmonett,  A. Sodt,  
 D. Stuck,  K. S. Thanthiriwatte,  V. Vanovschi,  Tao Wang,  A. Warshel,  
 C. F. Williams,  Q. Wu,  X. Xu,  W. Zhang

 Please cite Q-Chem as follows:
 Y. Shao et al., Mol. Phys. 113, 184-215 (2015)
 DOI: 10.1080/00268976.2014.952696

 Q-Chem 5.3.0 for Intel X86 EM64T Linux

 Parts of Q-Chem use Armadillo 9.800.1 (Horizon Scraper).
 http://arma.sourceforge.net/

 Q-Chem begins on Fri Jul 17 15:03:00 2020  

Host: node11
0

     Scratch files written to /scratch/gayverjr/EA.4241135824.saved//
Processing $rem in /home/gayverjr/qchem_james/qc53/config/preferences:
Processing $rem in /home/gayverjr/.qchemrc:
Core orbitals will be frozen

Checking the input file for inconsistencies... 	...done.

--------------------------------------------------------------
User input:
--------------------------------------------------------------
$molecule
0	1
N        0.0     0.0     1.039
N        0.0     0.0     -1.039
$end

$rem
JOBTYPE	 sp
INPUT_BOHR 1
METHOD	 eom-ccsd
BASIS	 aug-cc-pvdz
GUI	 2 
EA_STATES	[0,0,10,0,0,0,0,0]
CC_TRANS_PROP 2
STATE_ANALYSIS 1
$end

--------------------------------------------------------------
 ----------------------------------------------------------------
             Standard Nuclear Orientation (Bohr)
    I     Atom           X                Y                Z
 ----------------------------------------------------------------
    1      N       0.0000000000     0.0000000000     1.0390000000
    2      N       0.0000000000     0.0000000000    -1.0390000000
 ----------------------------------------------------------------
 Molecular Point Group                 D2h   NOp =  8
 Largest Abelian Subgroup              D2h   NOp =  8
 Nuclear Repulsion Energy =          23.58036574 hartrees
 There are        7 alpha and        7 beta electrons
 Requested basis set is aug-cc-pVDZ
 There are 18 shells and 46 basis functions
 Total memory of 2000 MB is distributed as follows: 
   MEM_STATIC is set to 192 MB
   QALLOC/CCMAN JOB total memory use is  1808 MB
 Warning: actual memory use might exceed 2000 MB

 Total QAlloc Memory Limit   2000 MB
 Mega-Array Size       188 MB
 MEM_STATIC part       192 MB

                       Distance Matrix (Bohrs)
             N (  1)
   N (  2)  2.078000

 A cutoff of  1.0D-14 yielded    171 shell pairs
 There are      1139 function pairs (      1353 Cartesian)
 Smallest overlap matrix eigenvalue = 1.73E-04

 Scale SEOQF with 1.000000e-01/1.000000e-01/1.000000e-01

 Standard Electronic Orientation quadrupole field applied
 Nucleus-field energy     =    -0.0000000005 hartrees
 Guess from superposition of atomic densities
 Warning:  Energy on first SCF cycle will be non-variational
 SAD guess density has 14.000000 electrons

 -----------------------------------------------------------------------
  General SCF calculation program by
  Eric Jon Sundstrom, Paul Horn, Yuezhi Mao, Dmitri Zuev, Alec White,
  David Stuck, Shaama M.S., Shane Yost, Joonho Lee, David Small,
  Daniel Levine, Susi Lehtola, Hugh Burton, Evgeny Epifanovsky,
  Bang C. Huynh
 -----------------------------------------------------------------------
 Hartree-Fock
 using 16 threads for integral computing
 -------------------------------------------------------
 OpenMP Integral computing Module                
 Release: version 2.0, May 2017, Q-Chem Inc. Pleasanton 
 -------------------------------------------------------
 A restricted SCF calculation will be
 performed using DIIS
 SCF converges when DIIS error is below 1.0e-08
 ---------------------------------------
  Cycle       Energy         DIIS error
 ---------------------------------------
    1    -109.0562818092      1.01e-01  
    2    -108.9459439719      7.06e-03  
    3    -108.9594286123      1.84e-03  
    4    -108.9603155647      4.22e-04  
    5    -108.9603868838      3.59e-05  
    6    -108.9603873521      5.30e-06  
    7    -108.9603873675      9.46e-07  
    8    -108.9603873682      9.04e-08  
    9    -108.9603873680      4.65e-09  Convergence criterion met
 ---------------------------------------
 SCF time:   CPU 2.91s  wall 1.00s 
 SCF   energy in the final basis set =     -108.9603873680
 Total energy in the final basis set =     -108.9603873680


 ------------------------------------------------------------------------------

   CCMAN2: suite of methods based on coupled cluster
           and equation of motion theories.

   Components:
   * libvmm-1.3-trunk
     by Evgeny Epifanovsky, Ilya Kaliman.
   * libtensor-2.5-trunk
     by Evgeny Epifanovsky, Michael Wormit, Dmitry Zuev, Sam Manzer, 
        Ilya Kaliman.
   * libcc-2.5-trunk
     by Evgeny Epifanovsky, Arik Landau, Tomasz Kus, Kirill Khistyaev, 
        Dmitry Zuev, Prashant Manohar, Xintian Feng, Anna Krylov, 
        Matthew Goldey, Alec White, Thomas Jagau, Kaushik Nanda, 
        Anastasia Gunina, Alexander Kunitsa, Joonho Lee.

   CCMAN original authors:
   Anna I. Krylov, C. David Sherrill, Steven R. Gwaltney,
   Edward F. C. Byrd (2000)
   Sergey V. Levchenko, Lyudmila V. Slipchenko, Tao Wang,
   Ana-Maria C. Cristian (2003)
   Piotr A. Pieniazek, C. Melania Oana, Evgeny Epifanovsky (2007)
   Prashant Manohar (2009)

 ------------------------------------------------------------------------------


 Allocating and initializing 1808MB of RAM...
 Calculation will run on 16 cores.


 Alpha MOs, Restricted
 -- Occupied --                  
-15.699 -15.696  -1.478  -0.782  -0.634  -0.615  -0.615
  1 Ag    1 B1u   2 Ag    2 B1u   3 Ag    1 B3u   1 B2u                        
 -- Virtual --                   
  0.104   0.124   0.124   0.140   0.150   0.150   0.196   0.253
  3 B1u   1 B2g   1 B3g   4 Ag    2 B3u   2 B2u   5 Ag    2 B2g                
  0.253   0.325   0.586   0.586   0.691   0.713   0.801   0.801
  2 B3g   4 B1u   6 Ag    1 B1g   7 Ag    5 B1u   3 B3u   3 B2u                
  0.866   0.866   0.947   0.981   0.981   1.084   1.084   1.136
  6 B1u   1 Au    7 B1u   3 B2g   3 B3g   4 B3u   4 B2u   8 Ag                 
  1.330   1.384   1.384   1.901   2.223   2.223   2.245   2.245
  8 B1u   4 B2g   4 B3g   9 Ag    5 B3u   5 B2u   2 B1g  10 Ag                 
  2.651   2.651   2.955   2.997   3.132   3.132   3.334
  9 B1u   2 Au   11 Ag   10 B1u   5 B2g   5 B3g  11 B1u                        

 Beta MOs, Restricted
 -- Occupied --                  
-15.699 -15.696  -1.478  -0.782  -0.634  -0.615  -0.615
  1 Ag    1 B1u   2 Ag    2 B1u   3 Ag    1 B3u   1 B2u                        
 -- Virtual --                   
  0.104   0.124   0.124   0.140   0.150   0.150   0.196   0.253
  3 B1u   1 B2g   1 B3g   4 Ag    2 B3u   2 B2u   5 Ag    2 B2g                
  0.253   0.325   0.586   0.586   0.691   0.713   0.801   0.801
  2 B3g   4 B1u   6 Ag    1 B1g   7 Ag    5 B1u   3 B3u   3 B2u                
  0.866   0.866   0.947   0.981   0.981   1.084   1.084   1.136
  6 B1u   1 Au    7 B1u   3 B2g   3 B3g   4 B3u   4 B2u   8 Ag                 
  1.330   1.384   1.384   1.901   2.223   2.223   2.245   2.245
  8 B1u   4 B2g   4 B3g   9 Ag    5 B3u   5 B2u   2 B1g  10 Ag                 
  2.651   2.651   2.955   2.997   3.132   3.132   3.334
  9 B1u   2 Au   11 Ag   10 B1u   5 B2g   5 B3g  11 B1u                        

 Occupation and symmetry of molecular orbitals

 Point group: D2h (8 irreducible representations).

                           Ag   B1g  B2g  B3g  Au   B1u  B2u  B3u   All 
 ------------------------------------------------------------------------
 All molecular orbitals:
  - Alpha                  11   2    5    5    2    11   5    5     46  
  - Beta                   11   2    5    5    2    11   5    5     46  
 ------------------------------------------------------------------------
 Alpha orbitals:
  - Frozen occupied        1    0    0    0    0    1    0    0     2   
  - Active occupied        2    0    0    0    0    1    1    1     5   
  - Active virtual         8    2    5    5    2    9    4    4     39  
  - Frozen virtual         0    0    0    0    0    0    0    0     0   
 ------------------------------------------------------------------------
 Beta orbitals:
  - Frozen occupied        1    0    0    0    0    1    0    0     2   
  - Active occupied        2    0    0    0    0    1    1    1     5   
  - Active virtual         8    2    5    5    2    9    4    4     39  
  - Frozen virtual         0    0    0    0    0    0    0    0     0   
 ------------------------------------------------------------------------

 Import integrals:   CPU 0.00 s  wall 0.00 s

 Import integrals:   CPU 5.10 s  wall 0.48 s

 MP2 amplitudes:   CPU 1.07 s  wall 0.95 s

Running a double precision version
           CCSD T amplitudes will be solved using DIIS.

           Start     Size      MaxIter   EConv     TConv     
           3         7         100       1.00e-06  1.00e-04  
 ------------------------------------------------------------------------------
           Energy (a.u.)   Ediff      Tdiff       Comment
 ------------------------------------------------------------------------------
          -109.27816854                           
     1    -109.26640046   1.18e-02   5.43e-01     
     2    -109.27914732   1.27e-02   8.43e-02     
     3    -109.27894476   2.03e-04   2.85e-02     
     4    -109.28022068   1.28e-03   8.76e-03     Switched to DIIS steps.
     5    -109.28062413   4.03e-04   7.37e-03     
     6    -109.28063348   9.35e-06   1.35e-03     
     7    -109.28063468   1.20e-06   1.74e-04     
     8    -109.28063499   3.11e-07   6.27e-05     
 ------------------------------------------------------------------------------
          -109.28063499                           CCSD T converged.

End of double precision
 SCF energy                 = -108.96038737
 MP2 energy                 = -109.27816854
 CCSD correlation energy    =   -0.32024762
 CCSD total energy          = -109.28063499

 CCSD  T1^2 = 0.0034  T2^2 = 0.1199  Leading amplitudes:

 Amplitude    Orbitals with energies
 -0.0193       1 (B2u) A                 ->    4 (B2u) A                  
              -0.6146                          1.0843                     
 -0.0193       1 (B2u) B                 ->    4 (B2u) B                  
              -0.6146                          1.0843                     
 -0.0193       1 (B3u) A                 ->    4 (B3u) A                  
              -0.6146                          1.0843                     
 -0.0193       1 (B3u) B                 ->    4 (B3u) B                  
              -0.6146                          1.0843                     

 Amplitude    Orbitals with energies
 -0.0569       1 (B3u) A     1 (B3u) B   ->    1 (B2g) A     1 (B2g) B    
              -0.6146       -0.6146            0.1239        0.1239       
  0.0569       1 (B3u) A     1 (B3u) B   ->    1 (B2g) B     1 (B2g) A    
              -0.6146       -0.6146            0.1239        0.1239       
  0.0569       1 (B3u) B     1 (B3u) A   ->    1 (B2g) A     1 (B2g) B    
              -0.6146       -0.6146            0.1239        0.1239       
 -0.0569       1 (B3u) B     1 (B3u) A   ->    1 (B2g) B     1 (B2g) A    
              -0.6146       -0.6146            0.1239        0.1239       
 -0.0569       1 (B2u) A     1 (B2u) B   ->    1 (B3g) A     1 (B3g) B    
              -0.6146       -0.6146            0.1239        0.1239       
  0.0569       1 (B2u) A     1 (B2u) B   ->    1 (B3g) B     1 (B3g) A    
              -0.6146       -0.6146            0.1239        0.1239       
  0.0569       1 (B2u) B     1 (B2u) A   ->    1 (B3g) A     1 (B3g) B    
              -0.6146       -0.6146            0.1239        0.1239       
 -0.0569       1 (B2u) B     1 (B2u) A   ->    1 (B3g) B     1 (B3g) A    
              -0.6146       -0.6146            0.1239        0.1239       

 Computing CCSD intermediates for later calculations in double precision
 Finished.

Running a double precision version
           CCSD Lambda amplitudes will be solved using DIIS.
           Start     Size      MaxIter   EConv     LConv     
           3         7         100       1.00e-06  1.00e-04  
 ------------------------------------------------------------------------------
            Enorm      Ldiff       Comment
 ------------------------------------------------------------------------------
     1     3.05e-02   2.34e-02     
     2     5.44e-03   2.06e-03     
     3     1.77e-03   9.53e-04     
     4     4.53e-04   4.04e-04     Switched to DIIS steps.
     5     1.75e-04   1.07e-04     
     6     3.89e-05   4.75e-05     
     7     1.08e-05   8.36e-06     
     8     2.79e-06   1.62e-06     
     9     6.32e-07   2.66e-07     
 ------------------------------------------------------------------------------
                                   CCSD Lambda converged.

 CCSD calculation:   CPU 49.14 s  wall 7.71 s

        Solving for EOMEA-CCSD/MP2 B2g transitions.

Warning! Not enough singles to form guess subspace. Doubles guess vectors will be generated.
In case of poor EOM convergence, reduce requested EA_STATES.

Running a double precision version
      EOMEA-CCSD/MP2 right amplitudes will be solved using Davidson.
        Amplitudes will be solved using standard  algorithm.
     Hard-coded thresholds: 
     LinDepThresh=1.00e-15  NormThresh=1.00e-06  ReorthogonThresh=1.00e-02

      Roots     MaxVec    MaxIter   Precond   Conv      Shift    
      10        120       60        1         1.00e-05  0.00e+00  
 ------------------------------------------------------------------------------
      Iter ConvRoots NVecs ResNorm Current eigenvalues (eV)
 ------------------------------------------------------------------------------
      0    0      11    4.61e-02   4.0181   7.8548   18.3024   18.4968   18.9601   19.0766   19.2458   21.7703   26.9698   37.8384   
      1    0      21    4.06e-02   3.1468   6.5910   17.9678   18.2722   18.5450   18.6286   18.7541   20.8798   25.4367   32.4583   
      2    0      31    2.44e-02   2.6760   6.1332   17.5845   17.8832   18.0881   18.2023   18.4603   18.9444   21.0076   22.3759   
      3    0      41    1.10e-02   2.6495   6.1008   15.4838   16.4825   17.5391   17.7789   17.8759   18.2258   18.2978   18.6293   
      4    2      51    1.06e-02   2.6487*  6.0991*  14.5729   14.8204   15.0229   15.5996   16.9076   17.5053   17.8526   18.1918   
      5    2      59    7.22e-03   2.6487*  6.0991*  13.4455   14.2641   14.4146   14.8495   16.4530   16.6365   16.8900   17.6975   
      6    2      67    6.41e-03   2.6487*  6.0992*  13.2285   13.8085   14.0862   14.7565   15.4403   15.7463   16.3710   16.7698   
      7    2      75    1.42e-03   2.6487*  6.0992*  13.1600   13.5828   13.9546   14.7266   14.9325   15.1592   16.1344   16.2514   
      8    2      83    4.51e-04   2.6487*  6.0992*  13.1493   13.5530   13.9310   14.7197   14.7737   15.0506   16.0253   16.1712   
      9    3      91    1.98e-04   2.6488*  6.0992*  13.1483*  13.5502   13.9274   14.7130   14.7175   15.0256   16.0026   16.1072   
      10   6      98    1.62e-04   2.6487*  6.0992*  13.1482*  13.5500*  13.9266*  14.6794   14.7169*  15.0199   15.9606   16.0894   
      11   7      102   2.87e-03   2.6487*  6.0992*  13.1481*  13.5500*  13.9266*  14.6743   14.7168*  15.0191*  15.6612   15.9775   
      12   8      105   3.83e-04   2.6488*  6.0992*  13.1481*  13.5500*  13.9266*  14.6737*  14.7168*  14.8297   15.0192*  15.9355   
      13   7      107   6.45e-04   2.6488*  6.0992*  13.1481*  13.5499*  13.9266*  14.6711   14.6739   14.7168*  14.9221   15.0193*  
      14   8      110   9.75e-05   2.6488*  6.0992*  13.1481*  13.5499*  13.9266*  14.5726   14.6737*  14.7168*  14.8609   15.0192*  
      15   8      112   3.21e-05   2.6488*  6.0992*  13.1481*  13.5499*  13.9266*  14.5442   14.6737*  14.7168*  14.8558   15.0192*  
      16   9      114   4.42e-06   2.6488*  6.0992*  13.1481*  13.5499*  13.9266*  14.5371   14.6737*  14.7168*  14.8549*  15.0192*  
      17   10     115   8.65e-07   2.6488*  6.0992*  13.1481*  13.5499*  13.9266*  14.5363*  14.6737*  14.7168*  14.8548*  15.0192*  

     Davidson procedure converged

 EOMEA transition 1/B2g
 Total energy = -109.18329496 a.u.  Excitation energy = 2.6488 eV.
 R1^2 = 0.9503  R2^2 = 0.0497  Res^2 = 5.01e-07
 Conv-d = yes

 Amplitude    Transitions between orbitals
 -0.9626       infty       ->    1 (B2g) B                  
 -0.1524       infty       ->    2 (B2g) B                  
  0.0184       infty       ->    3 (B2g) B                  
 -0.0150       infty       ->    4 (B2g) B                  

              Summary of significant orbitals:

               Number  Type             Irrep      Energy
               9       Vir  Beta        1 (B2g)      0.1239
               15      Vir  Beta        2 (B2g)      0.2525
               27      Vir  Beta        3 (B2g)      0.9814
               33      Vir  Beta        4 (B2g)      1.3839


 EOMEA transition 2/B2g
 Total energy = -109.05649404 a.u.  Excitation energy = 6.0992 eV.
 R1^2 = 0.9586  R2^2 = 0.0414  Res^2 = 6.96e-07
 Conv-d = yes

 Amplitude    Transitions between orbitals
 -0.9608       infty       ->    2 (B2g) B                  
  0.1840       infty       ->    1 (B2g) B                  
  0.0333       infty       ->    3 (B2g) B                  
 -0.0208       infty       ->    4 (B2g) B                  

              Summary of significant orbitals:

               Number  Type             Irrep      Energy
               9       Vir  Beta        1 (B2g)      0.1239
               15      Vir  Beta        2 (B2g)      0.2525
               27      Vir  Beta        3 (B2g)      0.9814
               33      Vir  Beta        4 (B2g)      1.3839


 EOMEA transition 3/B2g
 Total energy = -108.79745180 a.u.  Excitation energy = 13.1481 eV.
 R1^2 = 0.0000  R2^2 = 1.0000  Res^2 = 1.71e-07
 Conv-d = yes

 Amplitude    Transitions between orbitals
 -0.3602       1 (B3u) A   ->    2 (B3u) A     1 (B2g) B    
  0.3602       1 (B3u) A   ->    1 (B2g) B     2 (B3u) A    
 -0.3602       1 (B3u) B   ->    1 (B2g) B     2 (B3u) B    
  0.3602       1 (B3u) B   ->    2 (B3u) B     1 (B2g) B    
  0.3602       1 (B3u) A   ->    1 (B2g) A     2 (B3u) B    
 -0.3602       1 (B3u) A   ->    2 (B3u) B     1 (B2g) A    
 -0.2882       1 (B2u) B   ->    1 (B3g) B     2 (B3u) B    
  0.2882       1 (B2u) B   ->    2 (B3u) B     1 (B3g) B    
 -0.2882       1 (B2u) A   ->    2 (B3u) A     1 (B3g) B    
  0.2882       1 (B2u) A   ->    1 (B3g) B     2 (B3u) A    
  0.2882       1 (B2u) A   ->    1 (B3g) A     2 (B3u) B    
 -0.2882       1 (B2u) A   ->    2 (B3u) B     1 (B3g) A    
 -0.2320       1 (B3u) B   ->    2 (B2g) B     2 (B3u) B    
  0.2320       1 (B3u) B   ->    2 (B3u) B     2 (B2g) B    
  0.2320       1 (B3u) A   ->    2 (B2g) A     2 (B3u) B    
 -0.2320       1 (B3u) A   ->    2 (B3u) B     2 (B2g) A    
 -0.2319       1 (B3u) A   ->    2 (B3u) A     2 (B2g) B    
  0.2319       1 (B3u) A   ->    2 (B2g) B     2 (B3u) A    
 -0.1920       1 (B2u) A   ->    2 (B3g) A     2 (B3u) B    
  0.1920       1 (B2u) A   ->    2 (B3u) B     2 (B3g) A    
  0.1920       1 (B2u) A   ->    2 (B3u) A     2 (B3g) B    
 -0.1920       1 (B2u) A   ->    2 (B3g) B     2 (B3u) A    
  0.1920       1 (B2u) B   ->    2 (B3g) B     2 (B3u) B    
 -0.1920       1 (B2u) B   ->    2 (B3u) B     2 (B3g) B    
  0.1088       3 (Ag) A    ->    4 (Ag) A      1 (B2g) B    
 -0.1088       3 (Ag) A    ->    1 (B2g) B     4 (Ag) A     
 -0.1088       3 (Ag) A    ->    1 (B2g) A     4 (Ag) B     
  0.1088       3 (Ag) A    ->    4 (Ag) B      1 (B2g) A    
 -0.1088       3 (Ag) B    ->    4 (Ag) B      1 (B2g) B    
  0.1088       3 (Ag) B    ->    1 (B2g) B     4 (Ag) B     

              Summary of significant orbitals:

               Number  Type             Irrep      Energy
               5       Occ  Alpha       3 (Ag)     -0.6342
               7       Occ  Alpha       1 (B2u)     -0.6146
               6       Occ  Alpha       1 (B3u)     -0.6146
               5       Occ  Beta        3 (Ag)     -0.6342
               7       Occ  Beta        1 (B2u)     -0.6146
               6       Occ  Beta        1 (B3u)     -0.6146
               11      Vir  Alpha       4 (Ag)      0.1402
               9       Vir  Alpha       1 (B2g)      0.1239
               15      Vir  Alpha       2 (B2g)      0.2525
               10      Vir  Alpha       1 (B3g)      0.1239
               16      Vir  Alpha       2 (B3g)      0.2525
               12      Vir  Alpha       2 (B3u)      0.1504
               11      Vir  Beta        4 (Ag)      0.1402
               9       Vir  Beta        1 (B2g)      0.1239
               15      Vir  Beta        2 (B2g)      0.2525
               10      Vir  Beta        1 (B3g)      0.1239
               16      Vir  Beta        2 (B3g)      0.2525
               12      Vir  Beta        2 (B3u)      0.1504


 EOMEA transition 4/B2g
 Total energy = -108.78268403 a.u.  Excitation energy = 13.5499 eV.
 R1^2 = 0.0050  R2^2 = 0.9950  Res^2 = 3.37e-07
 Conv-d = yes

 Amplitude    Transitions between orbitals
 -0.5256       1 (B2u) A   ->    2 (B3u) A     1 (B3g) B    
  0.5256       1 (B2u) A   ->    1 (B3g) B     2 (B3u) A    
 -0.3963       1 (B3u) A   ->    2 (B3u) A     1 (B2g) B    
  0.3963       1 (B3u) A   ->    1 (B2g) B     2 (B3u) A    
  0.3463       1 (B2u) A   ->    2 (B3u) A     2 (B3g) B    
 -0.3463       1 (B2u) A   ->    2 (B3g) B     2 (B3u) A    
 -0.2722       1 (B3u) A   ->    2 (B3u) A     2 (B2g) B    
  0.2722       1 (B3u) A   ->    2 (B2g) B     2 (B3u) A    
  0.2630       1 (B2u) B   ->    1 (B3g) B     2 (B3u) B    
 -0.2630       1 (B2u) B   ->    2 (B3u) B     1 (B3g) B    
 -0.2627       1 (B2u) A   ->    1 (B3g) A     2 (B3u) B    
  0.2627       1 (B2u) A   ->    2 (B3u) B     1 (B3g) A    
 -0.1993       1 (B3u) A   ->    1 (B2g) A     2 (B3u) B    
  0.1993       1 (B3u) A   ->    2 (B3u) B     1 (B2g) A    
  0.1971       1 (B3u) B   ->    1 (B2g) B     2 (B3u) B    
 -0.1971       1 (B3u) B   ->    2 (B3u) B     1 (B2g) B    
 -0.1739       1 (B2u) B   ->    2 (B3g) B     2 (B3u) B    
  0.1739       1 (B2u) B   ->    2 (B3u) B     2 (B3g) B    
  0.1724       1 (B2u) A   ->    2 (B3g) A     2 (B3u) B    
 -0.1724       1 (B2u) A   ->    2 (B3u) B     2 (B3g) A    
 -0.1417       1 (B3u) A   ->    2 (B2g) A     2 (B3u) B    
  0.1417       1 (B3u) A   ->    2 (B3u) B     2 (B2g) A    
  0.1306       1 (B3u) B   ->    2 (B2g) B     2 (B3u) B    
 -0.1306       1 (B3u) B   ->    2 (B3u) B     2 (B2g) B    

              Summary of significant orbitals:

               Number  Type             Irrep      Energy
               7       Occ  Alpha       1 (B2u)     -0.6146
               6       Occ  Alpha       1 (B3u)     -0.6146
               7       Occ  Beta        1 (B2u)     -0.6146
               6       Occ  Beta        1 (B3u)     -0.6146
               9       Vir  Alpha       1 (B2g)      0.1239
               15      Vir  Alpha       2 (B2g)      0.2525
               10      Vir  Alpha       1 (B3g)      0.1239
               16      Vir  Alpha       2 (B3g)      0.2525
               12      Vir  Alpha       2 (B3u)      0.1504
               9       Vir  Beta        1 (B2g)      0.1239
               15      Vir  Beta        2 (B2g)      0.2525
               10      Vir  Beta        1 (B3g)      0.1239
               16      Vir  Beta        2 (B3g)      0.2525
               12      Vir  Beta        2 (B3u)      0.1504


 EOMEA transition 5/B2g
 Total energy = -108.76884303 a.u.  Excitation energy = 13.9266 eV.
 R1^2 = 0.0000  R2^2 = 1.0000  Res^2 = 1.99e-07
 Conv-d = yes

 Amplitude    Transitions between orbitals
 -0.4351       3 (Ag) A    ->    4 (Ag) A      1 (B2g) B    
  0.4351       3 (Ag) A    ->    1 (B2g) B     4 (Ag) A     
  0.4350       3 (Ag) B    ->    4 (Ag) B      1 (B2g) B    
 -0.4350       3 (Ag) B    ->    1 (B2g) B     4 (Ag) B     
  0.4350       3 (Ag) A    ->    1 (B2g) A     4 (Ag) B     
 -0.4350       3 (Ag) A    ->    4 (Ag) B      1 (B2g) A    
  0.2380       3 (Ag) B    ->    4 (Ag) B      2 (B2g) B    
 -0.2380       3 (Ag) B    ->    2 (B2g) B     4 (Ag) B     
  0.2379       3 (Ag) A    ->    2 (B2g) A     4 (Ag) B     
 -0.2379       3 (Ag) A    ->    4 (Ag) B      2 (B2g) A    
 -0.2379       3 (Ag) A    ->    4 (Ag) A      2 (B2g) B    
  0.2379       3 (Ag) A    ->    2 (B2g) B     4 (Ag) A     
  0.1549       1 (B2u) A   ->    1 (B3g) A     2 (B3u) B    
 -0.1549       1 (B2u) A   ->    2 (B3u) B     1 (B3g) A    
 -0.1549       1 (B2u) B   ->    1 (B3g) B     2 (B3u) B    
  0.1549       1 (B2u) B   ->    2 (B3u) B     1 (B3g) B    
 -0.1549       1 (B2u) A   ->    2 (B3u) A     1 (B3g) B    
  0.1549       1 (B2u) A   ->    1 (B3g) B     2 (B3u) A    
 -0.1349       2 (B1u) A   ->    1 (B2g) A     3 (B1u) B    
  0.1349       2 (B1u) A   ->    3 (B1u) B     1 (B2g) A    
  0.1348       2 (B1u) A   ->    3 (B1u) A     1 (B2g) B    
 -0.1348       2 (B1u) A   ->    1 (B2g) B     3 (B1u) A    
  0.1348       2 (B1u) B   ->    1 (B2g) B     3 (B1u) B    
 -0.1348       2 (B1u) B   ->    3 (B1u) B     1 (B2g) B    
  0.1059       1 (B2u) B   ->    1 (B2g) B     2 (B2u) B    
 -0.1059       1 (B2u) B   ->    2 (B2u) B     1 (B2g) B    
 -0.1058       1 (B2u) A   ->    1 (B2g) A     2 (B2u) B    
  0.1058       1 (B2u) A   ->    2 (B2u) B     1 (B2g) A    
  0.1058       1 (B2u) A   ->    2 (B2u) A     1 (B2g) B    
 -0.1058       1 (B2u) A   ->    1 (B2g) B     2 (B2u) A    
  0.1019       1 (B2u) A   ->    2 (B3u) A     2 (B3g) B    
 -0.1019       1 (B2u) A   ->    2 (B3g) B     2 (B3u) A    
  0.1018       1 (B2u) B   ->    2 (B3g) B     2 (B3u) B    
 -0.1018       1 (B2u) B   ->    2 (B3u) B     2 (B3g) B    
 -0.1018       1 (B2u) A   ->    2 (B3g) A     2 (B3u) B    
  0.1018       1 (B2u) A   ->    2 (B3u) B     2 (B3g) A    

              Summary of significant orbitals:

               Number  Type             Irrep      Energy
               5       Occ  Alpha       3 (Ag)     -0.6342
               4       Occ  Alpha       2 (B1u)     -0.7818
               7       Occ  Alpha       1 (B2u)     -0.6146
               5       Occ  Beta        3 (Ag)     -0.6342
               4       Occ  Beta        2 (B1u)     -0.7818
               7       Occ  Beta        1 (B2u)     -0.6146
               11      Vir  Alpha       4 (Ag)      0.1402
               9       Vir  Alpha       1 (B2g)      0.1239
               15      Vir  Alpha       2 (B2g)      0.2525
               10      Vir  Alpha       1 (B3g)      0.1239
               16      Vir  Alpha       2 (B3g)      0.2525
               8       Vir  Alpha       3 (B1u)      0.1038
               13      Vir  Alpha       2 (B2u)      0.1504
               12      Vir  Alpha       2 (B3u)      0.1504
               11      Vir  Beta        4 (Ag)      0.1402
               9       Vir  Beta        1 (B2g)      0.1239
               15      Vir  Beta        2 (B2g)      0.2525
               10      Vir  Beta        1 (B3g)      0.1239
               16      Vir  Beta        2 (B3g)      0.2525
               8       Vir  Beta        3 (B1u)      0.1038
               13      Vir  Beta        2 (B2u)      0.1504
               12      Vir  Beta        2 (B3u)      0.1504


 EOMEA transition 6/B2g
 Total energy = -108.74643412 a.u.  Excitation energy = 14.5363 eV.
 R1^2 = 0.0000  R2^2 = 1.0000  Res^2 = 2.54e-06
 Conv-d = yes

 Amplitude    Transitions between orbitals
 -0.2471       1 (B2u) A   ->    1 (B2g) A     2 (B2u) B    
  0.2471       1 (B2u) A   ->    2 (B2u) B     1 (B2g) A    
 -0.2470       1 (B3u) B   ->    1 (B2g) B     2 (B3u) B    
  0.2470       1 (B3u) B   ->    2 (B3u) B     1 (B2g) B    
 -0.2470       1 (B3u) A   ->    1 (B3g) A     2 (B2u) B    
  0.2470       1 (B3u) A   ->    2 (B2u) B     1 (B3g) A    
 -0.2470       1 (B2u) A   ->    1 (B3g) A     2 (B3u) B    
  0.2470       1 (B2u) A   ->    2 (B3u) B     1 (B3g) A    
  0.2470       1 (B2u) A   ->    2 (B3u) A     1 (B3g) B    
 -0.2470       1 (B2u) A   ->    1 (B3g) B     2 (B3u) A    
  0.2470       1 (B2u) A   ->    2 (B2u) A     1 (B2g) B    
 -0.2470       1 (B2u) A   ->    1 (B2g) B     2 (B2u) A    
  0.2470       1 (B3u) A   ->    2 (B2u) A     1 (B3g) B    
 -0.2470       1 (B3u) A   ->    1 (B3g) B     2 (B2u) A    
 -0.2469       1 (B3u) A   ->    2 (B3u) A     1 (B2g) B    
  0.2469       1 (B3u) A   ->    1 (B2g) B     2 (B3u) A    
  0.2469       1 (B3u) A   ->    1 (B2g) A     2 (B3u) B    
 -0.2469       1 (B3u) A   ->    2 (B3u) B     1 (B2g) A    
  0.2467       1 (B2u) B   ->    1 (B2g) B     2 (B2u) B    
 -0.2467       1 (B2u) B   ->    2 (B2u) B     1 (B2g) B    
  0.2467       1 (B3u) B   ->    1 (B3g) B     2 (B2u) B    
 -0.2467       1 (B3u) B   ->    2 (B2u) B     1 (B3g) B    
  0.2466       1 (B2u) B   ->    1 (B3g) B     2 (B3u) B    
 -0.2466       1 (B2u) B   ->    2 (B3u) B     1 (B3g) B    
  0.1453       1 (B2u) A   ->    2 (B3g) A     2 (B3u) B    
 -0.1453       1 (B2u) A   ->    2 (B3u) B     2 (B3g) A    
  0.1452       1 (B3u) A   ->    2 (B2g) A     2 (B3u) B    
 -0.1452       1 (B3u) A   ->    2 (B3u) B     2 (B2g) A    
  0.1450       1 (B3u) A   ->    2 (B3g) A     2 (B2u) B    
 -0.1450       1 (B3u) A   ->    2 (B2u) B     2 (B3g) A    
 -0.1450       1 (B2u) B   ->    2 (B3g) B     2 (B3u) B    
  0.1450       1 (B2u) B   ->    2 (B3u) B     2 (B3g) B    
 -0.1450       1 (B3u) A   ->    2 (B3u) A     2 (B2g) B    
  0.1450       1 (B3u) A   ->    2 (B2g) B     2 (B3u) A    
 -0.1449       1 (B3u) B   ->    2 (B3g) B     2 (B2u) B    
  0.1449       1 (B3u) B   ->    2 (B2u) B     2 (B3g) B    
 -0.1449       1 (B2u) A   ->    2 (B2g) A     2 (B2u) B    
  0.1449       1 (B2u) A   ->    2 (B2u) B     2 (B2g) A    
 -0.1449       1 (B2u) A   ->    2 (B3u) A     2 (B3g) B    
  0.1449       1 (B2u) A   ->    2 (B3g) B     2 (B3u) A    
 -0.1448       1 (B3u) A   ->    2 (B2u) A     2 (B3g) B    
  0.1448       1 (B3u) A   ->    2 (B3g) B     2 (B2u) A    
  0.1448       1 (B2u) A   ->    2 (B2u) A     2 (B2g) B    
 -0.1448       1 (B2u) A   ->    2 (B2g) B     2 (B2u) A    
  0.1447       1 (B2u) B   ->    2 (B2g) B     2 (B2u) B    
 -0.1447       1 (B2u) B   ->    2 (B2u) B     2 (B2g) B    
 -0.1446       1 (B3u) B   ->    2 (B2g) B     2 (B3u) B    
  0.1446       1 (B3u) B   ->    2 (B3u) B     2 (B2g) B    

              Summary of significant orbitals:

               Number  Type             Irrep      Energy
               7       Occ  Alpha       1 (B2u)     -0.6146
               6       Occ  Alpha       1 (B3u)     -0.6146
               7       Occ  Beta        1 (B2u)     -0.6146
               6       Occ  Beta        1 (B3u)     -0.6146
               9       Vir  Alpha       1 (B2g)      0.1239
               15      Vir  Alpha       2 (B2g)      0.2525
               10      Vir  Alpha       1 (B3g)      0.1239
               16      Vir  Alpha       2 (B3g)      0.2525
               13      Vir  Alpha       2 (B2u)      0.1504
               12      Vir  Alpha       2 (B3u)      0.1504
               9       Vir  Beta        1 (B2g)      0.1239
               15      Vir  Beta        2 (B2g)      0.2525
               10      Vir  Beta        1 (B3g)      0.1239
               16      Vir  Beta        2 (B3g)      0.2525
               13      Vir  Beta        2 (B2u)      0.1504
               12      Vir  Beta        2 (B3u)      0.1504


 EOMEA transition 7/B2g
 Total energy = -108.74138687 a.u.  Excitation energy = 14.6737 eV.
 R1^2 = 0.0000  R2^2 = 1.0000  Res^2 = 1.07e-07
 Conv-d = yes

 Amplitude    Transitions between orbitals
  0.2647       1 (B2u) A   ->    1 (B2g) A     2 (B2u) B    
 -0.2647       1 (B2u) A   ->    2 (B2u) B     1 (B2g) A    
 -0.2646       1 (B2u) B   ->    1 (B2g) B     2 (B2u) B    
  0.2646       1 (B2u) B   ->    2 (B2u) B     1 (B2g) B    
 -0.2646       1 (B2u) A   ->    2 (B2u) A     1 (B2g) B    
  0.2646       1 (B2u) A   ->    1 (B2g) B     2 (B2u) A    
  0.2520       1 (B2u) A   ->    2 (B3u) A     1 (B3g) B    
 -0.2520       1 (B2u) A   ->    1 (B3g) B     2 (B3u) A    
 -0.2519       1 (B2u) A   ->    1 (B3g) A     2 (B3u) B    
  0.2519       1 (B2u) A   ->    2 (B3u) B     1 (B3g) A    
  0.2519       1 (B2u) B   ->    1 (B3g) B     2 (B3u) B    
 -0.2519       1 (B2u) B   ->    2 (B3u) B     1 (B3g) B    
 -0.2020       1 (B3u) B   ->    1 (B2g) B     2 (B3u) B    
  0.2020       1 (B3u) B   ->    2 (B3u) B     1 (B2g) B    
 -0.2019       1 (B3u) A   ->    2 (B3u) A     1 (B2g) B    
  0.2019       1 (B3u) A   ->    1 (B2g) B     2 (B3u) A    
  0.2019       1 (B3u) A   ->    1 (B2g) A     2 (B3u) B    
 -0.2019       1 (B3u) A   ->    2 (B3u) B     1 (B2g) A    
  0.1892       1 (B3u) A   ->    1 (B3g) A     2 (B2u) B    
 -0.1892       1 (B3u) A   ->    2 (B2u) B     1 (B3g) A    
 -0.1892       1 (B3u) B   ->    1 (B3g) B     2 (B2u) B    
  0.1892       1 (B3u) B   ->    2 (B2u) B     1 (B3g) B    
 -0.1892       1 (B3u) A   ->    2 (B2u) A     1 (B3g) B    
  0.1892       1 (B3u) A   ->    1 (B3g) B     2 (B2u) A    
 -0.1591       1 (B2u) A   ->    2 (B2u) A     2 (B2g) B    
  0.1591       1 (B2u) A   ->    2 (B2g) B     2 (B2u) A    
 -0.1591       1 (B2u) B   ->    2 (B2g) B     2 (B2u) B    
  0.1591       1 (B2u) B   ->    2 (B2u) B     2 (B2g) B    
  0.1590       1 (B2u) A   ->    2 (B2g) A     2 (B2u) B    
 -0.1590       1 (B2u) A   ->    2 (B2u) B     2 (B2g) A    
 -0.1556       1 (B2u) B   ->    2 (B3g) B     2 (B3u) B    
  0.1556       1 (B2u) B   ->    2 (B3u) B     2 (B3g) B    
  0.1555       1 (B2u) A   ->    2 (B3g) A     2 (B3u) B    
 -0.1555       1 (B2u) A   ->    2 (B3u) B     2 (B3g) A    
 -0.1555       1 (B2u) A   ->    2 (B3u) A     2 (B3g) B    
  0.1555       1 (B2u) A   ->    2 (B3g) B     2 (B3u) A    
  0.1545       3 (Ag) A    ->    1 (B2g) A     4 (Ag) B     
 -0.1545       3 (Ag) A    ->    4 (Ag) B      1 (B2g) A    
  0.1544       3 (Ag) B    ->    4 (Ag) B      1 (B2g) B    
 -0.1544       3 (Ag) B    ->    1 (B2g) B     4 (Ag) B     
 -0.1544       3 (Ag) A    ->    4 (Ag) A      1 (B2g) B    
  0.1544       3 (Ag) A    ->    1 (B2g) B     4 (Ag) A     
 -0.1164       1 (B3u) B   ->    2 (B2g) B     2 (B3u) B    
  0.1164       1 (B3u) B   ->    2 (B3u) B     2 (B2g) B    
 -0.1163       1 (B3u) A   ->    2 (B3u) A     2 (B2g) B    
  0.1163       1 (B3u) A   ->    2 (B2g) B     2 (B3u) A    
  0.1163       1 (B3u) A   ->    2 (B2g) A     2 (B3u) B    
 -0.1163       1 (B3u) A   ->    2 (B3u) B     2 (B2g) A    
  0.1130       1 (B3u) A   ->    2 (B2u) A     2 (B3g) B    
 -0.1130       1 (B3u) A   ->    2 (B3g) B     2 (B2u) A    
 -0.1129       1 (B3u) A   ->    2 (B3g) A     2 (B2u) B    
  0.1129       1 (B3u) A   ->    2 (B2u) B     2 (B3g) A    
  0.1129       1 (B3u) B   ->    2 (B3g) B     2 (B2u) B    
 -0.1129       1 (B3u) B   ->    2 (B2u) B     2 (B3g) B    

              Summary of significant orbitals:

               Number  Type             Irrep      Energy
               5       Occ  Alpha       3 (Ag)     -0.6342
               7       Occ  Alpha       1 (B2u)     -0.6146
               6       Occ  Alpha       1 (B3u)     -0.6146
               5       Occ  Beta        3 (Ag)     -0.6342
               7       Occ  Beta        1 (B2u)     -0.6146
               6       Occ  Beta        1 (B3u)     -0.6146
               11      Vir  Alpha       4 (Ag)      0.1402
               9       Vir  Alpha       1 (B2g)      0.1239
               15      Vir  Alpha       2 (B2g)      0.2525
               10      Vir  Alpha       1 (B3g)      0.1239
               16      Vir  Alpha       2 (B3g)      0.2525
               13      Vir  Alpha       2 (B2u)      0.1504
               12      Vir  Alpha       2 (B3u)      0.1504
               11      Vir  Beta        4 (Ag)      0.1402
               9       Vir  Beta        1 (B2g)      0.1239
               15      Vir  Beta        2 (B2g)      0.2525
               10      Vir  Beta        1 (B3g)      0.1239
               16      Vir  Beta        2 (B3g)      0.2525
               13      Vir  Beta        2 (B2u)      0.1504
               12      Vir  Beta        2 (B3u)      0.1504


 EOMEA transition 8/B2g
 Total energy = -108.73980264 a.u.  Excitation energy = 14.7168 eV.
 R1^2 = 0.0063  R2^2 = 0.9937  Res^2 = 1.21e-06
 Conv-d = yes

 Amplitude    Transitions between orbitals
 -0.5805       3 (Ag) A    ->    4 (Ag) A      1 (B2g) B    
  0.5805       3 (Ag) A    ->    1 (B2g) B     4 (Ag) A     
 -0.3783       3 (Ag) A    ->    1 (B2g) A     4 (Ag) B     
  0.3783       3 (Ag) A    ->    4 (Ag) B      1 (B2g) A    
 -0.3327       3 (Ag) A    ->    4 (Ag) A      2 (B2g) B    
  0.3327       3 (Ag) A    ->    2 (B2g) B     4 (Ag) A     
 -0.2103       3 (Ag) A    ->    2 (B2g) A     4 (Ag) B     
  0.2103       3 (Ag) A    ->    4 (Ag) B      2 (B2g) A    
 -0.2022       3 (Ag) B    ->    4 (Ag) B      1 (B2g) B    
  0.2022       3 (Ag) B    ->    1 (B2g) B     4 (Ag) B     
  0.1805       2 (B1u) A   ->    3 (B1u) A     1 (B2g) B    
 -0.1805       2 (B1u) A   ->    1 (B2g) B     3 (B1u) A    
 -0.1663       1 (B2u) A   ->    2 (B2u) A     1 (B2g) B    
  0.1663       1 (B2u) A   ->    1 (B2g) B     2 (B2u) A    
 -0.1437       3 (Ag) A    ->    5 (Ag) A      1 (B2g) B    
  0.1437       3 (Ag) A    ->    1 (B2g) B     5 (Ag) A     
 -0.1369       1 (B3u) A   ->    2 (B3u) A     1 (B2g) B    
  0.1369       1 (B3u) A   ->    1 (B2g) B     2 (B3u) A    
  0.1240       1 (B2u) A   ->    2 (B3u) A     1 (B3g) B    
 -0.1240       1 (B2u) A   ->    1 (B3g) B     2 (B3u) A    
  0.1240       1 (B2u) B   ->    1 (B2g) B     2 (B2u) B    
 -0.1240       1 (B2u) B   ->    2 (B2u) B     1 (B2g) B    
 -0.1222       3 (Ag) B    ->    4 (Ag) B      2 (B2g) B    
  0.1222       3 (Ag) B    ->    2 (B2g) B     4 (Ag) B     
  0.1136       2 (B1u) A   ->    1 (B2g) A     3 (B1u) B    
 -0.1136       2 (B1u) A   ->    3 (B1u) B     1 (B2g) A    
  0.1130       2 (B1u) A   ->    3 (B1u) A     2 (B2g) B    
 -0.1130       2 (B1u) A   ->    2 (B2g) B     3 (B1u) A    
 -0.1007       3 (Ag) A    ->    5 (Ag) A      2 (B2g) B    
  0.1007       3 (Ag) A    ->    2 (B2g) B     5 (Ag) A     

              Summary of significant orbitals:

               Number  Type             Irrep      Energy
               5       Occ  Alpha       3 (Ag)     -0.6342
               4       Occ  Alpha       2 (B1u)     -0.7818
               7       Occ  Alpha       1 (B2u)     -0.6146
               6       Occ  Alpha       1 (B3u)     -0.6146
               5       Occ  Beta        3 (Ag)     -0.6342
               7       Occ  Beta        1 (B2u)     -0.6146
               11      Vir  Alpha       4 (Ag)      0.1402
               14      Vir  Alpha       5 (Ag)      0.1962
               9       Vir  Alpha       1 (B2g)      0.1239
               15      Vir  Alpha       2 (B2g)      0.2525
               8       Vir  Alpha       3 (B1u)      0.1038
               13      Vir  Alpha       2 (B2u)      0.1504
               12      Vir  Alpha       2 (B3u)      0.1504
               11      Vir  Beta        4 (Ag)      0.1402
               9       Vir  Beta        1 (B2g)      0.1239
               15      Vir  Beta        2 (B2g)      0.2525
               10      Vir  Beta        1 (B3g)      0.1239
               8       Vir  Beta        3 (B1u)      0.1038
               13      Vir  Beta        2 (B2u)      0.1504


 EOMEA transition 9/B2g
 Total energy = -108.73473137 a.u.  Excitation energy = 14.8548 eV.
 R1^2 = 0.0000  R2^2 = 1.0000  Res^2 = 4.70e-07
 Conv-d = yes

 Amplitude    Transitions between orbitals
  0.3439       1 (B3u) A   ->    2 (B3u) A     1 (B2g) B    
 -0.3439       1 (B3u) A   ->    1 (B2g) B     2 (B3u) A    
 -0.3439       1 (B3u) A   ->    2 (B2u) A     1 (B3g) B    
  0.3439       1 (B3u) A   ->    1 (B3g) B     2 (B2u) A    
 -0.3439       1 (B2u) A   ->    2 (B3u) A     1 (B3g) B    
  0.3439       1 (B2u) A   ->    1 (B3g) B     2 (B3u) A    
 -0.3438       1 (B2u) A   ->    2 (B2u) A     1 (B2g) B    
  0.3438       1 (B2u) A   ->    1 (B2g) B     2 (B2u) A    
 -0.2132       1 (B2u) A   ->    2 (B2u) A     2 (B2g) B    
  0.2132       1 (B2u) A   ->    2 (B2g) B     2 (B2u) A    
  0.2131       1 (B3u) A   ->    2 (B3u) A     2 (B2g) B    
 -0.2131       1 (B3u) A   ->    2 (B2g) B     2 (B3u) A    
  0.2131       1 (B2u) A   ->    2 (B3u) A     2 (B3g) B    
 -0.2131       1 (B2u) A   ->    2 (B3g) B     2 (B3u) A    
  0.2130       1 (B3u) A   ->    2 (B2u) A     2 (B3g) B    
 -0.2130       1 (B3u) A   ->    2 (B3g) B     2 (B2u) A    
 -0.1860       1 (B3u) B   ->    1 (B2g) B     2 (B3u) B    
  0.1860       1 (B3u) B   ->    2 (B3u) B     1 (B2g) B    
  0.1860       1 (B2u) B   ->    1 (B2g) B     2 (B2u) B    
 -0.1860       1 (B2u) B   ->    2 (B2u) B     1 (B2g) B    
  0.1859       1 (B3u) B   ->    1 (B3g) B     2 (B2u) B    
 -0.1859       1 (B3u) B   ->    2 (B2u) B     1 (B3g) B    
  0.1859       1 (B2u) B   ->    1 (B3g) B     2 (B3u) B    
 -0.1859       1 (B2u) B   ->    2 (B3u) B     1 (B3g) B    
 -0.1578       1 (B2u) A   ->    1 (B3g) A     2 (B3u) B    
  0.1578       1 (B2u) A   ->    2 (B3u) B     1 (B3g) A    
 -0.1578       1 (B3u) A   ->    1 (B3g) A     2 (B2u) B    
  0.1578       1 (B3u) A   ->    2 (B2u) B     1 (B3g) A    
 -0.1577       1 (B2u) A   ->    1 (B2g) A     2 (B2u) B    
  0.1577       1 (B2u) A   ->    2 (B2u) B     1 (B2g) A    
  0.1577       1 (B3u) A   ->    1 (B2g) A     2 (B3u) B    
 -0.1577       1 (B3u) A   ->    2 (B3u) B     1 (B2g) A    
 -0.1082       1 (B3u) B   ->    2 (B3g) B     2 (B2u) B    
  0.1082       1 (B3u) B   ->    2 (B2u) B     2 (B3g) B    
  0.1080       1 (B2u) B   ->    2 (B2g) B     2 (B2u) B    
 -0.1080       1 (B2u) B   ->    2 (B2u) B     2 (B2g) B    
 -0.1080       1 (B2u) B   ->    2 (B3g) B     2 (B3u) B    
  0.1080       1 (B2u) B   ->    2 (B3u) B     2 (B3g) B    
 -0.1079       1 (B3u) B   ->    2 (B2g) B     2 (B3u) B    
  0.1079       1 (B3u) B   ->    2 (B3u) B     2 (B2g) B    
 -0.1057       1 (B2u) A   ->    2 (B2g) A     2 (B2u) B    
  0.1057       1 (B2u) A   ->    2 (B2u) B     2 (B2g) A    
  0.1057       1 (B3u) A   ->    2 (B2g) A     2 (B3u) B    
 -0.1057       1 (B3u) A   ->    2 (B3u) B     2 (B2g) A    
  0.1057       1 (B3u) A   ->    2 (B3g) A     2 (B2u) B    
 -0.1057       1 (B3u) A   ->    2 (B2u) B     2 (B3g) A    
  0.1055       1 (B2u) A   ->    2 (B3g) A     2 (B3u) B    
 -0.1055       1 (B2u) A   ->    2 (B3u) B     2 (B3g) A    

              Summary of significant orbitals:

               Number  Type             Irrep      Energy
               7       Occ  Alpha       1 (B2u)     -0.6146
               6       Occ  Alpha       1 (B3u)     -0.6146
               7       Occ  Beta        1 (B2u)     -0.6146
               6       Occ  Beta        1 (B3u)     -0.6146
               9       Vir  Alpha       1 (B2g)      0.1239
               15      Vir  Alpha       2 (B2g)      0.2525
               10      Vir  Alpha       1 (B3g)      0.1239
               16      Vir  Alpha       2 (B3g)      0.2525
               13      Vir  Alpha       2 (B2u)      0.1504
               12      Vir  Alpha       2 (B3u)      0.1504
               9       Vir  Beta        1 (B2g)      0.1239
               15      Vir  Beta        2 (B2g)      0.2525
               10      Vir  Beta        1 (B3g)      0.1239
               16      Vir  Beta        2 (B3g)      0.2525
               13      Vir  Beta        2 (B2u)      0.1504
               12      Vir  Beta        2 (B3u)      0.1504


 EOMEA transition 10/B2g
 Total energy = -108.72868980 a.u.  Excitation energy = 15.0192 eV.
 R1^2 = 0.0221  R2^2 = 0.9779  Res^2 = 2.42e-06
 Conv-d = yes

 Amplitude    Transitions between orbitals
 -0.3438       1 (B2u) A   ->    1 (B2g) A     2 (B2u) B    
  0.3438       1 (B2u) A   ->    2 (B2u) B     1 (B2g) A    
 -0.3430       1 (B3u) A   ->    2 (B3u) A     1 (B2g) B    
  0.3430       1 (B3u) A   ->    1 (B2g) B     2 (B3u) A    
 -0.3109       1 (B2u) A   ->    2 (B2u) A     1 (B2g) B    
  0.3109       1 (B2u) A   ->    1 (B2g) B     2 (B2u) A    
  0.2969       3 (Ag) A    ->    1 (B2g) A     4 (Ag) B     
 -0.2969       3 (Ag) A    ->    4 (Ag) B      1 (B2g) A    
 -0.2404       1 (B3u) A   ->    2 (B2u) A     1 (B3g) B    
  0.2404       1 (B3u) A   ->    1 (B3g) B     2 (B2u) A    
 -0.2370       1 (B3u) A   ->    1 (B2g) A     2 (B3u) B    
  0.2370       1 (B3u) A   ->    2 (B3u) B     1 (B2g) A    
 -0.2195       1 (B3u) A   ->    2 (B3u) A     2 (B2g) B    
  0.2195       1 (B3u) A   ->    2 (B2g) B     2 (B3u) A    
  0.2085       3 (Ag) A    ->    4 (Ag) A      1 (B2g) B    
 -0.2085       3 (Ag) A    ->    1 (B2g) B     4 (Ag) A     
  0.2083       1 (B2u) A   ->    2 (B3u) A     1 (B3g) B    
 -0.2083       1 (B2u) A   ->    1 (B3g) B     2 (B3u) A    
  0.1874       1 (B3u) B   ->    1 (B3g) B     2 (B2u) B    
 -0.1874       1 (B3u) B   ->    2 (B2u) B     1 (B3g) B    
 -0.1831       1 (B2u) A   ->    2 (B2g) A     2 (B2u) B    
  0.1831       1 (B2u) A   ->    2 (B2u) B     2 (B2g) A    
 -0.1767       1 (B2u) A   ->    2 (B2u) A     2 (B2g) B    
  0.1767       1 (B2u) A   ->    2 (B2g) B     2 (B2u) A    
  0.1603       1 (B2u) A   ->    1 (B3g) A     2 (B3u) B    
 -0.1603       1 (B2u) A   ->    2 (B3u) B     1 (B3g) A    
  0.1505       1 (B3u) A   ->    2 (B2u) A     2 (B3g) B    
 -0.1505       1 (B3u) A   ->    2 (B3g) B     2 (B2u) A    
 -0.1446       1 (B3u) A   ->    2 (B2g) A     2 (B3u) B    
  0.1446       1 (B3u) A   ->    2 (B3u) B     2 (B2g) A    
  0.1440       3 (Ag) A    ->    2 (B2g) A     4 (Ag) B     
 -0.1440       3 (Ag) A    ->    4 (Ag) B      2 (B2g) A    
  0.1115       3 (Ag) A    ->    4 (Ag) A      2 (B2g) B    
 -0.1115       3 (Ag) A    ->    2 (B2g) B     4 (Ag) A     
 -0.1082       1 (B3u) B   ->    2 (B3g) B     2 (B2u) B    
  0.1082       1 (B3u) B   ->    2 (B2u) B     2 (B3g) B    
 -0.1076       1 (B2u) A   ->    2 (B3u) A     2 (B3g) B    
  0.1076       1 (B2u) A   ->    2 (B3g) B     2 (B3u) A    
  0.1060       1 (B3u) B   ->    1 (B2g) B     2 (B3u) B    
 -0.1060       1 (B3u) B   ->    2 (B3u) B     1 (B2g) B    

              Summary of significant orbitals:

               Number  Type             Irrep      Energy
               5       Occ  Alpha       3 (Ag)     -0.6342
               7       Occ  Alpha       1 (B2u)     -0.6146
               6       Occ  Alpha       1 (B3u)     -0.6146
               6       Occ  Beta        1 (B3u)     -0.6146
               11      Vir  Alpha       4 (Ag)      0.1402
               9       Vir  Alpha       1 (B2g)      0.1239
               15      Vir  Alpha       2 (B2g)      0.2525
               10      Vir  Alpha       1 (B3g)      0.1239
               13      Vir  Alpha       2 (B2u)      0.1504
               12      Vir  Alpha       2 (B3u)      0.1504
               11      Vir  Beta        4 (Ag)      0.1402
               9       Vir  Beta        1 (B2g)      0.1239
               15      Vir  Beta        2 (B2g)      0.2525
               10      Vir  Beta        1 (B3g)      0.1239
               16      Vir  Beta        2 (B3g)      0.2525
               13      Vir  Beta        2 (B2u)      0.1504
               12      Vir  Beta        2 (B3u)      0.1504


 EEs and amplitudes of EOMEA can not be exported to fchk file
Running a double precision version
      EOMEA-CCSD/MP2 left amplitudes will be solved using Davidson.
        Amplitudes will be solved using MOM  algorithm.
     Hard-coded thresholds: 
     LinDepThresh=1.00e-15  NormThresh=1.00e-06  ReorthogonThresh=1.00e-02

      Roots     MaxVec    MaxIter   Precond   Conv      Shift    
      10        120       60        1         1.00e-05  0.00e+00  
 ------------------------------------------------------------------------------
      Iter ConvRoots NVecs ResNorm Current eigenvalues (eV)
 ------------------------------------------------------------------------------
      0    0      10    6.63e-04   2.6488   6.0992   13.1481   13.5499   13.9266   14.5363   14.6737   14.7168   14.8548   15.0192   
      1    0      20    1.17e-04   2.6488   6.0992   13.1481   13.5499   13.9266   14.5363   14.6737   14.7168   14.8548   15.0192   
      2    8      30    9.43e-06   2.6488   6.0992   13.1481*  13.5499*  13.9266*  14.5363*  14.6737*  14.7168*  14.8548*  15.0192*  
      3    10     32    2.41e-06   2.6488*  6.0992*  13.1481*  13.5499*  13.9266*  14.5363*  14.6737*  14.7168*  14.8548*  15.0192*  

     Davidson procedure converged

 Excited state properties for  EOMEA-CCSD transition 1/B2g
 Dipole moment (a.u.): 0.000000 (X 0.000000, Y 0.000000, Z 0.000000)
 R-squared (a.u.): 55.221299 (XX 13.851364, YY 10.420698, ZZ 30.949237)
 Gauge origin (a.u.): (0.000000, 0.000000, 0.000000)
 Angular momentum (a.u.) against gauge origin: 
 (X 0.000000i, Y 0.000000i, Z 0.000000i)
 Traces of the OPDMs: Tr(AA) 7.000000, Tr(BB) 8.000000

State OPDM analysis using libwa module will be excecuted
 NOs (alpha)
   Occupation of frontier NOs:
      0.0041   0.9947
   Number of electrons:  7.000000
 NOs (beta)
   Occupation of frontier NOs:
      0.0145   0.9730
   Number of electrons:  8.000000
 NOs (spin-traced)
   Occupation of frontier NOs:
      0.9747   1.9916
   Number of electrons: 15.000000
   Number of unpaired electrons: n_u =  1.04727, n_u,nl =  1.00075
   NO participation ratio (PR_NO):  1.153828
 
 Mulliken Population Analysis
 Atom      Charge (e)        Spin (e)
 ------------------------------------
  1 N       -0.500000        0.500000
  2 N       -0.500000        0.500000
 ------------------------------------
 Sum:       -1.000000        1.000000
 
 Multipole moment analysis of the density matrix
   Molecular charge:                      -1.000000
   Number of electrons:                   15.000000
     Center of electronic charge [Ang]: [ -0.000000,   0.000000,  -0.000000]
   Total nuclear charge:                  14.000000
     Center of nuclear charge [Ang]:    [  0.000000,   0.000000,   0.000000]
   Dipole moment [D]:                     0.000000
     Cartesian components [D]:          [  0.000000,  -0.000000,   0.000000]
   RMS size of the density [Ang]:         1.015334
     Cartesian components [Ang]:        [  0.508513,   0.441066,   0.760117]
 

 Excited state properties for  EOMEA-CCSD transition 2/B2g
 Dipole moment (a.u.): 0.000000 (X 0.000000, Y 0.000000, Z 0.000000)
 R-squared (a.u.): 68.057068 (XX 19.652951, YY 12.131816, ZZ 36.272302)
 Gauge origin (a.u.): (0.000000, 0.000000, 0.000000)
 Angular momentum (a.u.) against gauge origin: 
 (X 0.000000i, Y 0.000000i, Z 0.000000i)
 Traces of the OPDMs: Tr(AA) 7.000000, Tr(BB) 8.000000

State OPDM analysis using libwa module will be excecuted
 NOs (alpha)
   Occupation of frontier NOs:
      0.0067   0.9905
   Number of electrons:  7.000000
 NOs (beta)
   Occupation of frontier NOs:
      0.0241   0.9615
   Number of electrons:  8.000000
 NOs (spin-traced)
   Occupation of frontier NOs:
      0.9627   1.9887
   Number of electrons: 15.000000
   Number of unpaired electrons: n_u =  1.07129, n_u,nl =  1.00318
   NO participation ratio (PR_NO):  1.236206
 
 Mulliken Population Analysis
 Atom      Charge (e)        Spin (e)
 ------------------------------------
  1 N       -0.500000        0.500000
  2 N       -0.500000        0.500000
 ------------------------------------
 Sum:       -1.000000        1.000000
 
 Multipole moment analysis of the density matrix
   Molecular charge:                      -1.000000
   Number of electrons:                   15.000000
     Center of electronic charge [Ang]: [  0.000000,   0.000000,  -0.000000]
   Total nuclear charge:                  14.000000
     Center of nuclear charge [Ang]:    [  0.000000,   0.000000,   0.000000]
   Dipole moment [D]:                     0.000000
     Cartesian components [D]:          [ -0.000000,  -0.000000,   0.000000]
   RMS size of the density [Ang]:         1.127177
     Cartesian components [Ang]:        [  0.605716,   0.475903,   0.822892]
 

 Excited state properties for  EOMEA-CCSD transition 3/B2g
 Dipole moment (a.u.): 0.000000 (X 0.000000, Y 0.000000, Z 0.000000)
 R-squared (a.u.): 67.306252 (XX 23.057271, YY 13.222895, ZZ 31.026086)
 Gauge origin (a.u.): (0.000000, 0.000000, 0.000000)
 Angular momentum (a.u.) against gauge origin: 
 (X 0.000000i, Y 0.000000i, Z 0.000000i)
 Traces of the OPDMs: Tr(AA) 7.000000, Tr(BB) 8.000000

State OPDM analysis using libwa module will be excecuted
 NOs (alpha)
   Occupation of frontier NOs:
      0.3105   0.6253
   Number of electrons:  7.000000
 NOs (beta)
   Occupation of frontier NOs:
      0.4154   0.6211
   Number of electrons:  8.000000
 NOs (spin-traced)
   Occupation of frontier NOs:
      0.9316   1.4380
   Number of electrons: 15.000000
   Number of unpaired electrons: n_u =  3.00000, n_u,nl =  3.13177
   NO participation ratio (PR_NO):  4.856267
 
 Mulliken Population Analysis
 Atom      Charge (e)        Spin (e)
 ------------------------------------
  1 N       -0.500000        0.500000
  2 N       -0.500000        0.500000
 ------------------------------------
 Sum:       -1.000000        1.000000
 
 Multipole moment analysis of the density matrix
   Molecular charge:                      -1.000000
   Number of electrons:                   15.000000
     Center of electronic charge [Ang]: [ -0.000000,  -0.000000,  -0.000000]
   Total nuclear charge:                  14.000000
     Center of nuclear charge [Ang]:    [  0.000000,   0.000000,   0.000000]
   Dipole moment [D]:                     0.000000
     Cartesian components [D]:          [  0.000000,   0.000000,   0.000000]
   RMS size of the density [Ang]:         1.120942
     Cartesian components [Ang]:        [  0.656084,   0.496843,   0.761060]
 

 Excited state properties for  EOMEA-CCSD transition 4/B2g
 Dipole moment (a.u.): 0.000000 (X 0.000000, Y 0.000000, Z 0.000000)
 R-squared (a.u.): 67.676557 (XX 23.405417, YY 13.364102, ZZ 30.907038)
 Gauge origin (a.u.): (0.000000, 0.000000, 0.000000)
 Angular momentum (a.u.) against gauge origin: 
 (X 0.000000i, Y 0.000000i, Z 0.000000i)
 Traces of the OPDMs: Tr(AA) 7.000000, Tr(BB) 8.000000

State OPDM analysis using libwa module will be excecuted
 NOs (alpha)
   Occupation of frontier NOs:
      0.4814   0.6314
   Number of electrons:  7.000000
 NOs (beta)
   Occupation of frontier NOs:
      0.3207   0.5048
   Number of electrons:  8.000000
 NOs (spin-traced)
   Occupation of frontier NOs:
      0.9603   1.3771
   Number of electrons: 15.000000
   Number of unpaired electrons: n_u =  2.98573, n_u,nl =  3.16661
   NO participation ratio (PR_NO):  4.578552
 
 Mulliken Population Analysis
 Atom      Charge (e)        Spin (e)
 ------------------------------------
  1 N       -0.500000        0.500000
  2 N       -0.500000        0.500000
 ------------------------------------
 Sum:       -1.000000        1.000000
 
 Multipole moment analysis of the density matrix
   Molecular charge:                      -1.000000
   Number of electrons:                   15.000000
     Center of electronic charge [Ang]: [ -0.000000,  -0.000000,  -0.000000]
   Total nuclear charge:                  14.000000
     Center of nuclear charge [Ang]:    [  0.000000,   0.000000,   0.000000]
   Dipole moment [D]:                     0.000000
     Cartesian components [D]:          [  0.000000,   0.000000,   0.000000]
   RMS size of the density [Ang]:         1.124022
     Cartesian components [Ang]:        [  0.661019,   0.499488,   0.759599]
 

 Excited state properties for  EOMEA-CCSD transition 5/B2g
 Dipole moment (a.u.): 0.000000 (X 0.000000, Y 0.000000, Z 0.000000)
 R-squared (a.u.): 69.565059 (XX 15.574376, YY 13.668810, ZZ 40.321873)
 Gauge origin (a.u.): (0.000000, 0.000000, 0.000000)
 Angular momentum (a.u.) against gauge origin: 
 (X 0.000000i, Y 0.000000i, Z 0.000000i)
 Traces of the OPDMs: Tr(AA) 7.000000, Tr(BB) 8.000000

State OPDM analysis using libwa module will be excecuted
 NOs (alpha)
   Occupation of frontier NOs:
      0.2898   0.5028
   Number of electrons:  7.000000
 NOs (beta)
   Occupation of frontier NOs:
      0.4999   0.5796
   Number of electrons:  8.000000
 NOs (spin-traced)
   Occupation of frontier NOs:
      0.8694   1.2542
   Number of electrons: 15.000000
   Number of unpaired electrons: n_u =  3.00000, n_u,nl =  2.96154
   NO participation ratio (PR_NO):  4.633091
 
 Mulliken Population Analysis
 Atom      Charge (e)        Spin (e)
 ------------------------------------
  1 N       -0.500000        0.500000
  2 N       -0.500000        0.500000
 ------------------------------------
 Sum:       -1.000000        1.000000
 
 Multipole moment analysis of the density matrix
   Molecular charge:                      -1.000000
   Number of electrons:                   15.000000
     Center of electronic charge [Ang]: [ -0.000000,  -0.000000,  -0.000000]
   Total nuclear charge:                  14.000000
     Center of nuclear charge [Ang]:    [  0.000000,   0.000000,   0.000000]
   Dipole moment [D]:                     0.000000
     Cartesian components [D]:          [  0.000000,   0.000000,   0.000000]
   RMS size of the density [Ang]:         1.139596
     Cartesian components [Ang]:        [  0.539214,   0.505151,   0.867613]
 

 Excited state properties for  EOMEA-CCSD transition 6/B2g
 Dipole moment (a.u.): 0.000000 (X 0.000000, Y 0.000000, Z 0.000000)
 R-squared (a.u.): 67.968072 (XX 18.501165, YY 18.499277, ZZ 30.967630)
 Gauge origin (a.u.): (0.000000, 0.000000, 0.000000)
 Angular momentum (a.u.) against gauge origin: 
 (X 0.000000i, Y 0.000000i, Z 0.000000i)
 Traces of the OPDMs: Tr(AA) 7.000000, Tr(BB) 8.000000

State OPDM analysis using libwa module will be excecuted
 NOs (alpha)
   Occupation of frontier NOs:
      0.1664   0.6681
   Number of electrons:  7.000000
 NOs (beta)
   Occupation of frontier NOs:
      0.3326   0.3327
   Number of electrons:  8.000000
 NOs (spin-traced)
   Occupation of frontier NOs:
      0.4991   1.5025
   Number of electrons: 15.000000
   Number of unpaired electrons: n_u =  3.00000, n_u,nl =  3.35194
   NO participation ratio (PR_NO):  6.062014
 
 Mulliken Population Analysis
 Atom      Charge (e)        Spin (e)
 ------------------------------------
  1 N       -0.500000        0.500000
  2 N       -0.500000        0.500000
 ------------------------------------
 Sum:       -1.000000        1.000000
 
 Multipole moment analysis of the density matrix
   Molecular charge:                      -1.000000
   Number of electrons:                   15.000000
     Center of electronic charge [Ang]: [ -0.000000,  -0.000000,  -0.000000]
   Total nuclear charge:                  14.000000
     Center of nuclear charge [Ang]:    [  0.000000,   0.000000,   0.000000]
   Dipole moment [D]:                     0.000000
     Cartesian components [D]:          [  0.000000,   0.000000,   0.000000]
   RMS size of the density [Ang]:         1.126440
     Cartesian components [Ang]:        [  0.587699,   0.587669,   0.760343]
 

 Excited state properties for  EOMEA-CCSD transition 7/B2g
 Dipole moment (a.u.): 0.000000 (X 0.000000, Y 0.000000, Z 0.000000)
 R-squared (a.u.): 69.095437 (XX 18.125760, YY 17.693411, ZZ 33.276266)
 Gauge origin (a.u.): (0.000000, 0.000000, 0.000000)
 Angular momentum (a.u.) against gauge origin: 
 (X 0.000000i, Y 0.000000i, Z 0.000000i)
 Traces of the OPDMs: Tr(AA) 7.000000, Tr(BB) 8.000000

State OPDM analysis using libwa module will be excecuted
 NOs (alpha)
   Occupation of frontier NOs:
      0.1922   0.6289
   Number of electrons:  7.000000
 NOs (beta)
   Occupation of frontier NOs:
      0.2928   0.3843
   Number of electrons:  8.000000
 NOs (spin-traced)
   Occupation of frontier NOs:
      0.5765   1.4434
   Number of electrons: 15.000000
   Number of unpaired electrons: n_u =  3.00000, n_u,nl =  3.05487
   NO participation ratio (PR_NO):  6.822493
 
 Mulliken Population Analysis
 Atom      Charge (e)        Spin (e)
 ------------------------------------
  1 N       -0.500000        0.500000
  2 N       -0.500000        0.500000
 ------------------------------------
 Sum:       -1.000000        1.000000
 
 Multipole moment analysis of the density matrix
   Molecular charge:                      -1.000000
   Number of electrons:                   15.000000
     Center of electronic charge [Ang]: [ -0.000000,  -0.000000,  -0.000000]
   Total nuclear charge:                  14.000000
     Center of nuclear charge [Ang]:    [  0.000000,   0.000000,   0.000000]
   Dipole moment [D]:                     0.000000
     Cartesian components [D]:          [  0.000000,   0.000000,   0.000000]
   RMS size of the density [Ang]:         1.135743
     Cartesian components [Ang]:        [  0.581706,   0.574727,   0.788175]
 

 Excited state properties for  EOMEA-CCSD transition 8/B2g
 Dipole moment (a.u.): 0.000000 (X 0.000000, Y 0.000000, Z 0.000000)
 R-squared (a.u.): 72.784497 (XX 15.017183, YY 13.800128, ZZ 43.967185)
 Gauge origin (a.u.): (0.000000, 0.000000, 0.000000)
 Angular momentum (a.u.) against gauge origin: 
 (X 0.000000i, Y 0.000000i, Z 0.000000i)
 Traces of the OPDMs: Tr(AA) 7.000000, Tr(BB) 8.000000

State OPDM analysis using libwa module will be excecuted
 NOs (alpha)
   Occupation of frontier NOs:
      0.3139   0.4915
   Number of electrons:  7.000000
 NOs (beta)
   Occupation of frontier NOs:
      0.2562   0.7008
   Number of electrons:  8.000000
 NOs (spin-traced)
   Occupation of frontier NOs:
      0.9153   1.2643
   Number of electrons: 15.000000
   Number of unpaired electrons: n_u =  2.97246, n_u,nl =  2.88675
   NO participation ratio (PR_NO):  4.505974
 
 Mulliken Population Analysis
 Atom      Charge (e)        Spin (e)
 ------------------------------------
  1 N       -0.500000        0.500000
  2 N       -0.500000        0.500000
 ------------------------------------
 Sum:       -1.000000        1.000000
 
 Multipole moment analysis of the density matrix
   Molecular charge:                      -1.000000
   Number of electrons:                   15.000000
     Center of electronic charge [Ang]: [ -0.000000,  -0.000000,  -0.000000]
   Total nuclear charge:                  14.000000
     Center of nuclear charge [Ang]:    [  0.000000,   0.000000,   0.000000]
   Dipole moment [D]:                     0.000000
     Cartesian components [D]:          [  0.000000,   0.000000,   0.000000]
   RMS size of the density [Ang]:         1.165668
     Cartesian components [Ang]:        [  0.529480,   0.507571,   0.905983]
 

 Excited state properties for  EOMEA-CCSD transition 9/B2g
 Dipole moment (a.u.): 0.000000 (X 0.000000, Y 0.000000, Z 0.000000)
 R-squared (a.u.): 68.151910 (XX 18.612602, YY 18.612499, ZZ 30.926809)
 Gauge origin (a.u.): (0.000000, 0.000000, 0.000000)
 Angular momentum (a.u.) against gauge origin: 
 (X 0.000000i, Y 0.000000i, Z 0.000000i)
 Traces of the OPDMs: Tr(AA) 7.000000, Tr(BB) 8.000000

State OPDM analysis using libwa module will be excecuted
 NOs (alpha)
   Occupation of frontier NOs:
      0.3320   0.5959
   Number of electrons:  7.000000
 NOs (beta)
   Occupation of frontier NOs:
      0.4229   0.4230
   Number of electrons:  8.000000
 NOs (spin-traced)
   Occupation of frontier NOs:
      0.4988   1.5024
   Number of electrons: 15.000000
   Number of unpaired electrons: n_u =  3.00000, n_u,nl =  3.35064
   NO participation ratio (PR_NO):  6.065538
 
 Mulliken Population Analysis
 Atom      Charge (e)        Spin (e)
 ------------------------------------
  1 N       -0.500000        0.500000
  2 N       -0.500000        0.500000
 ------------------------------------
 Sum:       -1.000000        1.000000
 
 Multipole moment analysis of the density matrix
   Molecular charge:                      -1.000000
   Number of electrons:                   15.000000
     Center of electronic charge [Ang]: [ -0.000000,  -0.000000,  -0.000000]
   Total nuclear charge:                  14.000000
     Center of nuclear charge [Ang]:    [  0.000000,   0.000000,   0.000000]
   Dipole moment [D]:                     0.000000
     Cartesian components [D]:          [  0.000000,   0.000000,   0.000000]
   RMS size of the density [Ang]:         1.127962
     Cartesian components [Ang]:        [  0.589466,   0.589465,   0.759842]
 

 Excited state properties for  EOMEA-CCSD transition 10/B2g
 Dipole moment (a.u.): 0.000000 (X 0.000000, Y 0.000000, Z 0.000000)
 R-squared (a.u.): 67.875458 (XX 17.706834, YY 17.549007, ZZ 32.619616)
 Gauge origin (a.u.): (0.000000, 0.000000, 0.000000)
 Angular momentum (a.u.) against gauge origin: 
 (X 0.000000i, Y 0.000000i, Z 0.000000i)
 Traces of the OPDMs: Tr(AA) 7.000000, Tr(BB) 8.000000

State OPDM analysis using libwa module will be excecuted
 NOs (alpha)
   Occupation of frontier NOs:
      0.3446   0.6248
   Number of electrons:  7.000000
 NOs (beta)
   Occupation of frontier NOs:
      0.2088   0.3998
   Number of electrons:  8.000000
 NOs (spin-traced)
   Occupation of frontier NOs:
      0.7437   1.5958
   Number of electrons: 15.000000
   Number of unpaired electrons: n_u =  2.95240, n_u,nl =  2.83612
   NO participation ratio (PR_NO):  6.771249
 
 Mulliken Population Analysis
 Atom      Charge (e)        Spin (e)
 ------------------------------------
  1 N       -0.500000        0.500000
  2 N       -0.500000        0.500000
 ------------------------------------
 Sum:       -1.000000        1.000000
 
 Multipole moment analysis of the density matrix
   Molecular charge:                      -1.000000
   Number of electrons:                   15.000000
     Center of electronic charge [Ang]: [ -0.000000,  -0.000000,  -0.000000]
   Total nuclear charge:                  14.000000
     Center of nuclear charge [Ang]:    [  0.000000,   0.000000,   0.000000]
   Dipole moment [D]:                     0.000000
     Cartesian components [D]:          [  0.000000,   0.000000,   0.000000]
   RMS size of the density [Ang]:         1.125672
     Cartesian components [Ang]:        [  0.574945,   0.572376,   0.780360]
 

 EOMEA-CCSD calculation:   CPU 287.71 s  wall 60.42 s


 Start computing the transition properties

 ------------------------------------------------------------------------------
 State A: eomea_ccsd/b: 1/B2g
 State B: eomea_ccsd/b: 2/B2g
 Transition dipole moment (a.u.):
   A->B: 0.000000 (X 0.000000, Y 0.000000, Z 0.000000)
   B->A: 0.000000 (X 0.000000, Y 0.000000, Z 0.000000)
 Oscillator strength (a.u.): 0.000000
 Transition angular momentum against gauge origin (a.u.):
   A->B:  (X 0.000000i, Y 0.000000i, Z 0.000000i)
   B->A:  (X 0.000000i, Y 0.000000i, Z 0.000000i)
 Norm of one-particle transition density matrix:
   A->B: 0.979276;   B->A: 0.980623
   ||gamma^AB||*||gamma^BA||: 0.960301

State analysis of transition OPDM (A->B) using libwa module will be excecuted
 
 CT numbers (Mulliken)
   omega =     0.9590 (alpha:     0.0183, beta:     0.9407)
   <Phe> =     0.0536 (alpha:     0.9283, beta:     0.0366)
 
 Exciton analysis of the transition density matrix
 Total:
   Trans. dipole moment [D]:             0.000000
     Cartesian components [D]:         [ -0.000000,  -0.000000,   0.000000]
   <r_h> [Ang]:                        [ -0.000000,   0.000000,   0.000000]
   <r_e> [Ang]:                        [  0.000000,   0.000000,  -0.000000]
   |<r_e - r_h>| [Ang]:                  0.000000
   Hole size [Ang]:                      1.901780
     Cartesian components [Ang]:       [  1.207812,   0.704442,   1.289076]
   Electron size [Ang]:                  2.717322
     Cartesian components [Ang]:       [  1.763331,   1.026002,   1.794943]
   RMS electron-hole separation [Ang]:   3.308497
     Cartesian components [Ang]:       [  2.133238,   1.241264,   2.203341]
   Covariance(r_h, r_e) [Ang^2]:         0.027225
   Correlation coefficient:              0.005268
   Center-of-mass size [Ang]:            1.662457
     Cartesian components [Ang]:       [  1.070699,   0.623920,   1.108193]
 
 Alpha spin:
   Trans. dipole moment [D]:             0.000000
     Cartesian components [D]:         [ -0.000000,  -0.000000,   0.000000]
   <r_h> [Ang]:                        [ -0.000000,  -0.000000,  -0.000000]
   <r_e> [Ang]:                        [ -0.000000,  -0.000000,  -0.000000]
   |<r_e - r_h>| [Ang]:                  0.000000
   Hole size [Ang]:                      1.511634
     Cartesian components [Ang]:       [  0.810500,   0.740955,   1.038804]
   Electron size [Ang]:                  2.005417
     Cartesian components [Ang]:       [  1.143384,   1.018823,   1.294747]
   RMS electron-hole separation [Ang]:   2.096084
     Cartesian components [Ang]:       [  1.251892,   1.135823,   1.239452]
   Covariance(r_h, r_e) [Ang^2]:         0.956583
   Correlation coefficient:              0.315552
   Center-of-mass size [Ang]:            1.433518
     Cartesian components [Ang]:       [  0.768316,   0.686282,   0.996836]
 
 Beta spin:
   Trans. dipole moment [D]:             0.000000
     Cartesian components [D]:         [ -0.000000,  -0.000000,   0.000000]
   <r_h> [Ang]:                        [ -0.000000,   0.000000,   0.000000]
   <r_e> [Ang]:                        [  0.000000,   0.000000,   0.000000]
   |<r_e - r_h>| [Ang]:                  0.000000
   Hole size [Ang]:                      1.908570
     Cartesian components [Ang]:       [  1.214244,   0.703714,   1.293459]
   Electron size [Ang]:                  2.729314
     Cartesian components [Ang]:       [  1.773230,   1.026141,   1.803287]
   RMS electron-hole separation [Ang]:   3.327680
     Cartesian components [Ang]:       [  2.146781,   1.243224,   2.217923]
   Covariance(r_h, r_e) [Ang^2]:         0.009170
   Correlation coefficient:              0.001760
   Center-of-mass size [Ang]:            1.666593
     Cartesian components [Ang]:       [  1.075733,   0.622646,   1.110245]

 ------------------------------------------------------------------------------
 State A: eomea_ccsd/b: 1/B2g
 State B: eomea_ccsd/b: 3/B2g
 Transition dipole moment (a.u.):
   A->B: 0.000000 (X 0.000000, Y 0.000000, Z 0.000000)
   B->A: 0.000000 (X 0.000000, Y 0.000000, Z 0.000000)
 Oscillator strength (a.u.): 0.000000
 Transition angular momentum against gauge origin (a.u.):
   A->B:  (X 0.000000i, Y 0.000000i, Z 0.000000i)
   B->A:  (X 0.000000i, Y 0.000000i, Z 0.000000i)
 Norm of one-particle transition density matrix:
   A->B: 0.574837;   B->A: 0.579575
   ||gamma^AB||*||gamma^BA||: 0.333161

State analysis of transition OPDM (A->B) using libwa module will be excecuted
 
 CT numbers (Mulliken)
   omega =     0.3304 (alpha:     0.1652, beta:     0.1652)
   <Phe> =     0.0141 (alpha:     0.0141, beta:     0.0141)
 
 Exciton analysis of the transition density matrix
 Total:
   Trans. dipole moment [D]:             0.000000
     Cartesian components [D]:         [ -0.000000,  -0.000000,   0.000000]
   <r_h> [Ang]:                        [ -0.000000,  -0.000000,  -0.000000]
   <r_e> [Ang]:                        [ -0.000000,  -0.000000,  -0.000000]
   |<r_e - r_h>| [Ang]:                  0.000000
   Hole size [Ang]:                      1.074635
     Cartesian components [Ang]:       [  0.722105,   0.443786,   0.660650]
   Electron size [Ang]:                  2.684773
     Cartesian components [Ang]:       [  1.996400,   1.220752,   1.316113]
   RMS electron-hole separation [Ang]:   2.790097
     Cartesian components [Ang]:       [  2.035858,   1.279700,   1.415023]
   Covariance(r_h, r_e) [Ang^2]:         0.289101
   Correlation coefficient:              0.100203
   Center-of-mass size [Ang]:            1.495079
     Cartesian components [Ang]:       [  1.103334,   0.658925,   0.764024]
 
 Alpha spin:
   Trans. dipole moment [D]:             0.000000
     Cartesian components [D]:         [ -0.000000,  -0.000000,   0.000000]
   <r_h> [Ang]:                        [ -0.000000,  -0.000000,  -0.000000]
   <r_e> [Ang]:                        [ -0.000000,  -0.000000,  -0.000000]
   |<r_e - r_h>| [Ang]:                  0.000000
   Hole size [Ang]:                      1.074638
     Cartesian components [Ang]:       [  0.722104,   0.443780,   0.660660]
   Electron size [Ang]:                  2.684778
     Cartesian components [Ang]:       [  1.996409,   1.220734,   1.316129]
   RMS electron-hole separation [Ang]:   2.790087
     Cartesian components [Ang]:       [  2.035861,   1.279688,   1.415011]
   Covariance(r_h, r_e) [Ang^2]:         0.289146
   Correlation coefficient:              0.100218
   Center-of-mass size [Ang]:            1.495090
     Cartesian components [Ang]:       [  1.103340,   0.658912,   0.764048]
 
 Beta spin:
   Trans. dipole moment [D]:             0.000000
     Cartesian components [D]:         [ -0.000000,  -0.000000,   0.000000]
   <r_h> [Ang]:                        [ -0.000000,  -0.000000,  -0.000000]
   <r_e> [Ang]:                        [ -0.000000,  -0.000000,  -0.000000]
   |<r_e - r_h>| [Ang]:                  0.000000
   Hole size [Ang]:                      1.074632
     Cartesian components [Ang]:       [  0.722106,   0.443792,   0.660640]
   Electron size [Ang]:                  2.684767
     Cartesian components [Ang]:       [  1.996392,   1.220770,   1.316098]
   RMS electron-hole separation [Ang]:   2.790107
     Cartesian components [Ang]:       [  2.035855,   1.279712,   1.415036]
   Covariance(r_h, r_e) [Ang^2]:         0.289055
   Correlation coefficient:              0.100188
   Center-of-mass size [Ang]:            1.495068
     Cartesian components [Ang]:       [  1.103328,   0.658939,   0.764001]

 ------------------------------------------------------------------------------
 State A: eomea_ccsd/b: 1/B2g
 State B: eomea_ccsd/b: 4/B2g
 Transition dipole moment (a.u.):
   A->B: 0.000000 (X 0.000000, Y 0.000000, Z 0.000000)
   B->A: 0.000000 (X 0.000000, Y 0.000000, Z 0.000000)
 Oscillator strength (a.u.): 0.000000
 Transition angular momentum against gauge origin (a.u.):
   A->B:  (X 0.000000i, Y 0.000000i, Z 0.000000i)
   B->A:  (X 0.000000i, Y 0.000000i, Z 0.000000i)
 Norm of one-particle transition density matrix:
   A->B: 0.497803;   B->A: 0.500380
   ||gamma^AB||*||gamma^BA||: 0.249091

State analysis of transition OPDM (A->B) using libwa module will be excecuted
 
 CT numbers (Mulliken)
   omega =     0.2478 (alpha:     0.1950, beta:     0.0528)
   <Phe> =     0.0048 (alpha:     0.0070, beta:    -0.0035)
 
 Exciton analysis of the transition density matrix
 Total:
   Trans. dipole moment [D]:             0.000000
     Cartesian components [D]:         [  0.000000,   0.000000,  -0.000000]
   <r_h> [Ang]:                        [ -0.000000,   0.000000,  -0.000000]
   <r_e> [Ang]:                        [ -0.000000,   0.000000,  -0.000000]
   |<r_e - r_h>| [Ang]:                  0.000000
   Hole size [Ang]:                      1.089593
     Cartesian components [Ang]:       [  0.747631,   0.463259,   0.643158]
   Electron size [Ang]:                  2.730066
     Cartesian components [Ang]:       [  2.037863,   1.263098,   1.305741]
   RMS electron-hole separation [Ang]:   2.924907
     Cartesian components [Ang]:       [  2.187292,   1.337656,   1.407662]
   Covariance(r_h, r_e) [Ang^2]:         0.042696
   Correlation coefficient:              0.014353
   Center-of-mass size [Ang]:            1.476979
     Cartesian components [Ang]:       [  1.076966,   0.676522,   0.750951]
 
 Alpha spin:
   Trans. dipole moment [D]:             0.000000
     Cartesian components [D]:         [  0.000000,   0.000000,  -0.000000]
[...]
   <r_e> [Ang]:                        [ -0.000000,   0.000000,  -0.000000]
   |<r_e - r_h>| [Ang]:                  0.000000
   Hole size [Ang]:                      2.740102
     Cartesian components [Ang]:       [  1.719737,   1.719962,   1.261901]
   Electron size [Ang]:                  2.749047
     Cartesian components [Ang]:       [  1.725728,   1.725951,   1.264997]
   RMS electron-hole separation [Ang]:   3.880203
     Cartesian components [Ang]:       [  2.436471,   2.436677,   1.783871]
   Covariance(r_h, r_e) [Ang^2]:         0.004722
   Correlation coefficient:              0.000627
   Center-of-mass size [Ang]:            1.941318
     Cartesian components [Ang]:       [  1.218080,   1.218294,   0.894850]

 ------------------------------------------------------------------------------
 State A: eomea_ccsd/b: 7/B2g
 State B: eomea_ccsd/b: 10/B2g
 Transition dipole moment (a.u.):
   A->B: 0.000000 (X 0.000000, Y 0.000000, Z 0.000000)
   B->A: 0.000000 (X 0.000000, Y 0.000000, Z 0.000000)
 Oscillator strength (a.u.): 0.000000
 Transition angular momentum against gauge origin (a.u.):
   A->B:  (X 0.000000i, Y 0.000000i, Z 0.000000i)
   B->A:  (X 0.000000i, Y 0.000000i, Z 0.000000i)
 Norm of one-particle transition density matrix:
   A->B: 0.426770;   B->A: 0.434335
   ||gamma^AB||*||gamma^BA||: 0.185362

State analysis of transition OPDM (A->B) using libwa module will be excecuted
 
 CT numbers (Mulliken)
   omega =     0.1821 (alpha:     0.0911, beta:     0.0911)
   <Phe> =     0.9664 (alpha:     0.9664, beta:     0.9664)
 
 Exciton analysis of the transition density matrix
 Total:
   Trans. dipole moment [D]:             0.000000
     Cartesian components [D]:         [  0.000000,   0.000000,   0.000000]
   <r_h> [Ang]:                        [ -0.000000,  -0.000000,  -0.000000]
   <r_e> [Ang]:                        [ -0.000000,  -0.000000,  -0.000000]
   |<r_e - r_h>| [Ang]:                  0.000000
   Hole size [Ang]:                      2.395848
     Cartesian components [Ang]:       [  1.455116,   1.468382,   1.211025]
   Electron size [Ang]:                  2.329286
     Cartesian components [Ang]:       [  1.424885,   1.434626,   1.156340]
   RMS electron-hole separation [Ang]:   3.379475
     Cartesian components [Ang]:       [  2.084288,   2.103425,   1.628558]
   Covariance(r_h, r_e) [Ang^2]:        -0.127596
   Correlation coefficient:             -0.022864
   Center-of-mass size [Ang]:            1.651550
     Cartesian components [Ang]:       [  0.993864,   1.000525,   0.859536]
 
 Alpha spin:
   Trans. dipole moment [D]:             0.000000
     Cartesian components [D]:         [  0.000000,   0.000000,   0.000000]
   <r_h> [Ang]:                        [ -0.000000,  -0.000000,  -0.000000]
   <r_e> [Ang]:                        [ -0.000000,  -0.000000,  -0.000000]
   |<r_e - r_h>| [Ang]:                  0.000000
   Hole size [Ang]:                      2.395798
     Cartesian components [Ang]:       [  1.455101,   1.468361,   1.210969]
   Electron size [Ang]:                  2.329146
     Cartesian components [Ang]:       [  1.424828,   1.434548,   1.156226]
   RMS electron-hole separation [Ang]:   3.379263
     Cartesian components [Ang]:       [  2.084201,   2.103307,   1.628381]
   Covariance(r_h, r_e) [Ang^2]:        -0.127324
   Correlation coefficient:             -0.022817
   Center-of-mass size [Ang]:            1.651524
     Cartesian components [Ang]:       [  0.993858,   1.000515,   0.859504]
 
 Beta spin:
   Trans. dipole moment [D]:             0.000000
     Cartesian components [D]:         [  0.000000,   0.000000,   0.000000]
   <r_h> [Ang]:                        [ -0.000000,  -0.000000,  -0.000000]
   <r_e> [Ang]:                        [ -0.000000,  -0.000000,  -0.000000]
   |<r_e - r_h>| [Ang]:                  0.000000
   Hole size [Ang]:                      2.395898
     Cartesian components [Ang]:       [  1.455131,   1.468402,   1.211081]
   Electron size [Ang]:                  2.329426
     Cartesian components [Ang]:       [  1.424943,   1.434705,   1.156454]
   RMS electron-hole separation [Ang]:   3.379688
     Cartesian components [Ang]:       [  2.084375,   2.103543,   1.628735]
   Covariance(r_h, r_e) [Ang^2]:        -0.127868
   Correlation coefficient:             -0.022911
   Center-of-mass size [Ang]:            1.651576
     Cartesian components [Ang]:       [  0.993871,   1.000534,   0.859568]

 ------------------------------------------------------------------------------
 State A: eomea_ccsd/b: 8/B2g
 State B: eomea_ccsd/b: 9/B2g
 Transition dipole moment (a.u.):
   A->B: 0.000000 (X 0.000000, Y 0.000000, Z 0.000000)
   B->A: 0.000000 (X 0.000000, Y 0.000000, Z 0.000000)
 Oscillator strength (a.u.): 0.000000
 Transition angular momentum against gauge origin (a.u.):
   A->B:  (X 0.000000i, Y 0.000000i, Z 0.000000i)
   B->A:  (X 0.000000i, Y 0.000000i, Z 0.000000i)
 Norm of one-particle transition density matrix:
   A->B: 0.228233;   B->A: 0.209078
   ||gamma^AB||*||gamma^BA||: 0.047718

State analysis of transition OPDM (A->B) using libwa module will be excecuted
 
 CT numbers (Mulliken)
   omega =     0.0521 (alpha:     0.0408, beta:     0.0113)
   <Phe> =     0.9721 (alpha:     0.9721, beta:     0.9721)
 
 Exciton analysis of the transition density matrix
 Total:
   Trans. dipole moment [D]:             0.000000
     Cartesian components [D]:         [ -0.000000,  -0.000000,  -0.000000]
   <r_h> [Ang]:                        [ -0.000000,  -0.000000,  -0.000000]
   <r_e> [Ang]:                        [ -0.000000,   0.000000,  -0.000000]
   |<r_e - r_h>| [Ang]:                  0.000000
   Hole size [Ang]:                      2.694382
     Cartesian components [Ang]:       [  1.690775,   1.690420,   1.242359]
   Electron size [Ang]:                  2.699592
     Cartesian components [Ang]:       [  1.693596,   1.693256,   1.245960]
   RMS electron-hole separation [Ang]:   3.820050
     Cartesian components [Ang]:       [  2.396167,   2.395710,   1.764010]
   Covariance(r_h, r_e) [Ang^2]:        -0.022642
   Correlation coefficient:             -0.003113
   Center-of-mass size [Ang]:            1.904088
     Cartesian components [Ang]:       [  1.195027,   1.194764,   0.877498]
 
 Alpha spin:
   Trans. dipole moment [D]:             0.000000
     Cartesian components [D]:         [ -0.000000,  -0.000000,  -0.000000]
   <r_h> [Ang]:                        [ -0.000000,   0.000000,  -0.000000]
   <r_e> [Ang]:                        [ -0.000000,   0.000000,  -0.000000]
   |<r_e - r_h>| [Ang]:                  0.000000
   Hole size [Ang]:                      2.708593
     Cartesian components [Ang]:       [  1.700786,   1.700344,   1.246049]
   Electron size [Ang]:                  2.714663
     Cartesian components [Ang]:       [  1.704037,   1.703602,   1.250356]
   RMS electron-hole separation [Ang]:   3.839502
     Cartesian components [Ang]:       [  2.410578,   2.410056,   1.767065]
   Covariance(r_h, r_e) [Ang^2]:        -0.017952
   Correlation coefficient:             -0.002441
   Center-of-mass size [Ang]:            1.915070
     Cartesian components [Ang]:       [  1.202283,   1.201925,   0.881694]
 
 Beta spin:
   Trans. dipole moment [D]:             0.000000
     Cartesian components [D]:         [ -0.000000,  -0.000000,  -0.000000]
   <r_h> [Ang]:                        [ -0.000000,  -0.000000,  -0.000000]
   <r_e> [Ang]:                        [ -0.000000,  -0.000000,  -0.000000]
   |<r_e - r_h>| [Ang]:                  0.000000
   Hole size [Ang]:                      2.642213
     Cartesian components [Ang]:       [  1.653970,   1.653937,   1.228886]
   Electron size [Ang]:                  2.644229
     Cartesian components [Ang]:       [  1.655184,   1.655199,   1.229890]
   RMS electron-hole separation [Ang]:   3.748671
     Cartesian components [Ang]:       [  2.343173,   2.342959,   1.752889]
   Covariance(r_h, r_e) [Ang^2]:        -0.039649
   Correlation coefficient:             -0.005675
   Center-of-mass size [Ang]:            1.863729
     Cartesian components [Ang]:       [  1.168337,   1.168431,   0.862114]

 ------------------------------------------------------------------------------
 State A: eomea_ccsd/b: 8/B2g
 State B: eomea_ccsd/b: 10/B2g
 Transition dipole moment (a.u.):
   A->B: 0.000000 (X 0.000000, Y 0.000000, Z 0.000000)
   B->A: 0.000000 (X 0.000000, Y 0.000000, Z 0.000000)
 Oscillator strength (a.u.): 0.000000
 Transition angular momentum against gauge origin (a.u.):
   A->B:  (X 0.000000i, Y 0.000000i, Z 0.000000i)
   B->A:  (X 0.000000i, Y 0.000000i, Z 0.000000i)
 Norm of one-particle transition density matrix:
   A->B: 0.480765;   B->A: 0.447575
   ||gamma^AB||*||gamma^BA||: 0.215178

State analysis of transition OPDM (A->B) using libwa module will be excecuted
 
 CT numbers (Mulliken)
   omega =     0.2311 (alpha:     0.2012, beta:     0.0299)
   <Phe> =     0.9440 (alpha:     0.9479, beta:     0.9180)
 
 Exciton analysis of the transition density matrix
 Total:
   Trans. dipole moment [D]:             0.000000
     Cartesian components [D]:         [ -0.000000,   0.000000,  -0.000000]
   <r_h> [Ang]:                        [ -0.000000,  -0.000000,  -0.000000]
   <r_e> [Ang]:                        [ -0.000000,  -0.000000,  -0.000000]
   |<r_e - r_h>| [Ang]:                  0.000000
   Hole size [Ang]:                      1.981665
     Cartesian components [Ang]:       [  0.936479,   0.939887,   1.471943]
   Electron size [Ang]:                  1.779372
     Cartesian components [Ang]:       [  0.892730,   0.894200,   1.252839]
   RMS electron-hole separation [Ang]:   2.690676
     Cartesian components [Ang]:       [  1.432827,   1.433522,   1.769678]
   Covariance(r_h, r_e) [Ang^2]:        -0.073288
   Correlation coefficient:             -0.020784
   Center-of-mass size [Ang]:            1.317819
     Cartesian components [Ang]:       [  0.568974,   0.572489,   1.041716]
 
 Alpha spin:
   Trans. dipole moment [D]:             0.000000
     Cartesian components [D]:         [ -0.000000,   0.000000,  -0.000000]
   <r_h> [Ang]:                        [ -0.000000,  -0.000000,  -0.000000]
   <r_e> [Ang]:                        [ -0.000000,  -0.000000,  -0.000000]
   |<r_e - r_h>| [Ang]:                  0.000000
   Hole size [Ang]:                      1.898593
     Cartesian components [Ang]:       [  0.905810,   0.907396,   1.400284]
   Electron size [Ang]:                  1.694794
     Cartesian components [Ang]:       [  0.856959,   0.854547,   1.186464]
   RMS electron-hole separation [Ang]:   2.566858
     Cartesian components [Ang]:       [  1.370262,   1.371567,   1.682245]
   Covariance(r_h, r_e) [Ang^2]:        -0.055891
   Correlation coefficient:             -0.017370
   Center-of-mass size [Ang]:            1.261467
     Cartesian components [Ang]:       [  0.555005,   0.553634,   0.988311]
 
 Beta spin:
   Trans. dipole moment [D]:             0.000000
     Cartesian components [D]:         [ -0.000000,   0.000000,  -0.000000]
   <r_h> [Ang]:                        [ -0.000000,  -0.000000,  -0.000000]
   <r_e> [Ang]:                        [ -0.000000,  -0.000000,  -0.000000]
   |<r_e - r_h>| [Ang]:                  0.000000
   Hole size [Ang]:                      2.468875
     Cartesian components [Ang]:       [  1.121192,   1.134515,   1.884449]
   Electron size [Ang]:                  2.267771
     Cartesian components [Ang]:       [  1.103624,   1.125191,   1.630565]
   RMS electron-hole separation [Ang]:   3.408629
     Cartesian components [Ang]:       [  1.797973,   1.795562,   2.272004]
   Covariance(r_h, r_e) [Ang^2]:        -0.190311
   Correlation coefficient:             -0.033991
   Center-of-mass size [Ang]:            1.647537
     Cartesian components [Ang]:       [  0.655250,   0.685988,   1.347014]

 ------------------------------------------------------------------------------
 State A: eomea_ccsd/b: 9/B2g
 State B: eomea_ccsd/b: 10/B2g
 Transition dipole moment (a.u.):
   A->B: 0.000000 (X 0.000000, Y 0.000000, Z 0.000000)
   B->A: 0.000000 (X 0.000000, Y 0.000000, Z 0.000000)
 Oscillator strength (a.u.): 0.000000
 Transition angular momentum against gauge origin (a.u.):
   A->B:  (X 0.000000i, Y 0.000000i, Z 0.000000i)
   B->A:  (X 0.000000i, Y 0.000000i, Z 0.000000i)
 Norm of one-particle transition density matrix:
   A->B: 0.448601;   B->A: 0.455928
   ||gamma^AB||*||gamma^BA||: 0.204530

State analysis of transition OPDM (A->B) using libwa module will be excecuted
 
 CT numbers (Mulliken)
   omega =     0.2012 (alpha:     0.1603, beta:     0.0409)
   <Phe> =     0.9701 (alpha:     0.9708, beta:     0.9673)
 
 Exciton analysis of the transition density matrix
 Total:
   Trans. dipole moment [D]:             0.000000
     Cartesian components [D]:         [ -0.000000,   0.000000,  -0.000000]
   <r_h> [Ang]:                        [ -0.000000,  -0.000000,  -0.000000]
   <r_e> [Ang]:                        [ -0.000000,   0.000000,  -0.000000]
   |<r_e - r_h>| [Ang]:                  0.000000
   Hole size [Ang]:                      2.618013
     Cartesian components [Ang]:       [  1.639914,   1.639923,   1.214630]
   Electron size [Ang]:                  2.546052
     Cartesian components [Ang]:       [  1.593646,   1.593673,   1.184432]
   RMS electron-hole separation [Ang]:   3.647521
     Cartesian components [Ang]:       [  2.285499,   2.285619,   1.690223]
   Covariance(r_h, r_e) [Ang^2]:         0.015981
   Correlation coefficient:              0.002397
   Center-of-mass size [Ang]:            1.828137
     Cartesian components [Ang]:       [  1.143956,   1.143923,   0.851404]
 
 Alpha spin:
   Trans. dipole moment [D]:             0.000000
     Cartesian components [D]:         [ -0.000000,   0.000000,  -0.000000]
   <r_h> [Ang]:                        [ -0.000000,   0.000000,  -0.000000]
   <r_e> [Ang]:                        [ -0.000000,   0.000000,  -0.000000]
   |<r_e - r_h>| [Ang]:                  0.000000
   Hole size [Ang]:                      2.633723
     Cartesian components [Ang]:       [  1.651392,   1.651379,   1.217519]
   Electron size [Ang]:                  2.561325
     Cartesian components [Ang]:       [  1.604501,   1.604518,   1.188059]
   RMS electron-hole separation [Ang]:   3.670751
     Cartesian components [Ang]:       [  2.301311,   2.301256,   1.697822]
   Covariance(r_h, r_e) [Ang^2]:         0.011237
   Correlation coefficient:              0.001666
   Center-of-mass size [Ang]:            1.838434
     Cartesian components [Ang]:       [  1.151847,   1.151877,   0.852214]
 
 Beta spin:
   Trans. dipole moment [D]:             0.000000
     Cartesian components [D]:         [ -0.000000,   0.000000,  -0.000000]
   <r_h> [Ang]:                        [ -0.000000,  -0.000000,  -0.000000]
   <r_e> [Ang]:                        [ -0.000000,  -0.000000,  -0.000000]
   |<r_e - r_h>| [Ang]:                  0.000000
   Hole size [Ang]:                      2.555524
     Cartesian components [Ang]:       [  1.594144,   1.594245,   1.203241]
   Electron size [Ang]:                  2.485304
     Cartesian components [Ang]:       [  1.550378,   1.550451,   1.170113]
   RMS electron-hole separation [Ang]:   3.555039
     Cartesian components [Ang]:       [  2.222460,   2.223287,   1.660113]
   Covariance(r_h, r_e) [Ang^2]:         0.034567
   Correlation coefficient:              0.005443
   Center-of-mass size [Ang]:            1.787217
     Cartesian components [Ang]:       [  1.112499,   1.112208,   0.848223]


 All requested transition properties have been computed

 Transition Properties:   CPU 33.90 s  wall 8.88 s

 Total ccman2 time:   CPU 378.56 s  wall 79.13 s


 --------------------------------------------------------------
             Orbital Energies (a.u.) and Symmetries
 --------------------------------------------------------------

 Alpha MOs, Restricted
 -- Occupied --                  
-15.699 -15.696  -1.478  -0.782  -0.634  -0.615  -0.615
  1 Ag    1 B1u   2 Ag    2 B1u   3 Ag    1 B3u   1 B2u                        
 -- Virtual --                   
  0.104   0.124   0.124   0.140   0.150   0.150   0.196   0.253
  3 B1u   1 B2g   1 B3g   4 Ag    2 B3u   2 B2u   5 Ag    2 B2g                
  0.253   0.325   0.586   0.586   0.691   0.713   0.801   0.801
  2 B3g   4 B1u   6 Ag    1 B1g   7 Ag    5 B1u   3 B3u   3 B2u                
  0.866   0.866   0.947   0.981   0.981   1.084   1.084   1.136
  6 B1u   1 Au    7 B1u   3 B2g   3 B3g   4 B3u   4 B2u   8 Ag                 
  1.330   1.384   1.384   1.901   2.223   2.223   2.245   2.245
  8 B1u   4 B2g   4 B3g   9 Ag    5 B3u   5 B2u   2 B1g  10 Ag                 
  2.651   2.651   2.955   2.997   3.132   3.132   3.334
  9 B1u   2 Au   11 Ag   10 B1u   5 B2g   5 B3g  11 B1u                        

 Beta MOs, Restricted
 -- Occupied --                  
-15.699 -15.696  -1.478  -0.782  -0.634  -0.615  -0.615
  1 Ag    1 B1u   2 Ag    2 B1u   3 Ag    1 B3u   1 B2u                        
 -- Virtual --                   
  0.104   0.124   0.124   0.140   0.150   0.150   0.196   0.253
  3 B1u   1 B2g   1 B3g   4 Ag    2 B3u   2 B2u   5 Ag    2 B2g                
  0.253   0.325   0.586   0.586   0.691   0.713   0.801   0.801
  2 B3g   4 B1u   6 Ag    1 B1g   7 Ag    5 B1u   3 B3u   3 B2u                
  0.866   0.866   0.947   0.981   0.981   1.084   1.084   1.136
  6 B1u   1 Au    7 B1u   3 B2g   3 B3g   4 B3u   4 B2u   8 Ag                 
  1.330   1.384   1.384   1.901   2.223   2.223   2.245   2.245
  8 B1u   4 B2g   4 B3g   9 Ag    5 B3u   5 B2u   2 B1g  10 Ag                 
  2.651   2.651   2.955   2.997   3.132   3.132   3.334
  9 B1u   2 Au   11 Ag   10 B1u   5 B2g   5 B3g  11 B1u                        
 --------------------------------------------------------------

          Ground-State Mulliken Net Atomic Charges

     Atom                 Charge (a.u.)
  ----------------------------------------
      1 N                     0.000000
      2 N                    -0.000000
  ----------------------------------------
  Sum of atomic charges =     0.000000

 -----------------------------------------------------------------
                    Cartesian Multipole Moments
 -----------------------------------------------------------------
    Charge (ESU x 10^10)
                 0.0000
    Dipole Moment (Debye)
         X       0.0000      Y      -0.0000      Z      -0.0000
       Tot       0.0000
    Quadrupole Moments (Debye-Ang)
        XX     -10.4592     XY      -0.0000     YY     -10.4592
        XZ      -0.0000     YZ       0.0000     ZZ     -11.6554
    Octopole Moments (Debye-Ang^2)
       XXX       0.0000    XXY       0.0000    XYY       0.0000
       YYY       0.0000    XXZ      -0.0000    XYZ       0.0000
       YYZ      -0.0000    XZZ       0.0000    YZZ       0.0000
       ZZZ      -0.0000
    Hexadecapole Moments (Debye-Ang^3)
      XXXX      -9.2229   XXXY      -0.0000   XXYY      -3.0743
      XYYY      -0.0000   YYYY      -9.2229   XXXZ       0.0000
      XXYZ      -0.0000   XYYZ       0.0000   YYYZ      -0.0000
      XXZZ      -6.3343   XYZZ      -0.0000   YYZZ      -6.3343
      XZZZ      -0.0000   YZZZ       0.0000   ZZZZ     -31.5018
 -----------------------------------------------------------------
Archival summary:
1\1\node11\SP\ProcedureUnspecified\BasisUnspecified\2\gayverjr\FriJul1715:04:232020FriJul1715:04:232020\0\\#,ProcedureUnspecified,BasisUnspecified,\\0,1\N\N,1,2.078\\HF=-108.960387\\@

 Total job time:  82.81s(wall), 384.03s(cpu) 
 Fri Jul 17 15:04:23 2020

        *************************************************************
        *                                                           *
        *  Thank you very much for using Q-Chem.  Have a nice day.  *
        *                                                           *
        *************************************************************


