                  Welcome to Q-Chem
     A Quantum Leap Into The Future Of Chemistry


 Q-Chem 5.4 (devel), Q-Chem, Inc., Pleasanton, CA (2021)

 E. Epifanovsky,  A. T. B. Gilbert,  Xintian Feng,  Joonho Lee,  Yuezhi Mao,  
 N. Mardirossian,  P. Pokhilko,  A. White,  M. Wormit,  M. P. Coons,  
 A. L. Dempwolff,  Zhengting Gan,  D. Hait,  P. R. Horn,  L. D. Jacobson,  
 I. Kaliman,  J. Kussmann,  A. W. Lange,  Ka Un Lao,  D. S. Levine,  Jie Liu,  
 S. C. McKenzie,  A. F. Morrison,  K. Nanda,  F. Plasser,  D. R. Rehn,  
 M. L. Vidal,  Zhi-Qiang You,  B. Alam,  B. Albrecht,  A. Aldossary,  
 E. Alguire,  J. H. Andersen,  D. Barton,  K. Begam,  A. Behn,  
 Y. A. Bernard,  E. J. Berquist,  H. Burton,  A. Carreras,  K. Carter-Fenk,  
 R. Chakraborty,  A. Chien,  K. D. Closser,  V. Cofer-Shabica,  S. Dasgupta,  
 Jia Deng,  M. Diedenhofen,  Hainam Do,  S. Ehlert,  Po-Tung Fang,  
 S. Fatehi,  Qingguo Feng,  J. Gayvert,  Qinghui Ge,  G. Gidofalvi,  
 M. Goldey,  J. Gomes,  C. Gonzalez-Espinoza,  S. Gulania,  A. Gunina,  
 M. W. D. Hanson-Heine,  P. H. P. Harbach,  A. W. Hauser,  M. F. Herbst,  
 M. Hernandez Vera,  M. Hodecker,  Z. C. Holden,  S. Houck,  Xunkun Huang,  
 Kerwin Hui,  B. C. Huynh,  M. Ivanov,  Hyunjun Ji,  Hanjie Jiang,  B. Kaduk,  
 S. Kaehler,  K. Khistyaev,  Jaehoon Kim,  P. Klunzinger,  Z. Koczor-Benda,  
 Joong Hoon Koh,  D. Kosenkov,  L. Koulias,  T. Kowalczyk,  C. M. Krauter,  
 K. Kue,  A. Kunitsa,  T. Kus,  A. Landau,  K. V. Lawler,  D. Lefrancois,  
 S. Lehtola,  Rain Li,  Yi-Pei Li,  Jiashu Liang,  M. Liebenthal,  
 Hung-Hsuan Lin,  You-Sheng Lin,  Fenglai Liu,  Kuan-Yu Liu,  
 M. Loipersberger,  A. Luenser,  A. Manjanath,  P. Manohar,  E. Mansoor,  
 S. F. Manzer,  Shan-Ping Mao,  A. V. Marenich,  T. Markovich,  S. Mason,  
 S. A. Maurer,  P. F. McLaughlin,  M. F. S. J. Menger,  J.-M. Mewes,  
 S. A. Mewes,  P. Morgante,  J. W. Mullinax,  T. S. Nguyen-Beck,  
 K. J. Oosterbaan,  G. Paran,  Alexander C. Paul,  Suranjan K. Paul,  
 F. Pavosevic,  Zheng Pei,  S. Prager,  E. I. Proynov,  E. Ramos,  B. Rana,  
 A. E. Rask,  A. Rettig,  R. M. Richard,  F. Rob,  E. Rossomme,  T. Scheele,  
 M. Scheurer,  M. Schneider,  N. Sergueev,  S. M. Sharada,  W. Skomorowski,  
 D. W. Small,  E. J. Sundstrom,  T. Stauch,  C. J. Stein,  Yu-Chuan Su,  
 S. P. Veccham,  Zhen Tao,  T. Tsuchimochi,  N. M. Tubman,  O. Vydrov,  
 J. Wenzel,  M. de Wergifosse,  J. Witte,  A. Yamada,  K. Yao,  S. Yeganeh,  
 S. R. Yost,  A. Zech,  Igor Ying Zhang,  Xing Zhang,  Yu Zhang,  Ying Zhu,  
 D. Zuev,  A. Aspuru-Guzik,  A. T. Bell,  N. A. Besley,  K. B. Bravaya,  
 B. R. Brooks,  D. Casanova,  Jeng-Da Chai,  S. Coriani,  C. J. Cramer,  
 A. E. DePrince, III,  R. A. DiStasio Jr.,  A. Dreuw,  B. D. Dunietz,  
 T. R. Furlani,  W. A. Goddard III,  S. Grimme,  S. Hammes-Schiffer,  
 T. Head-Gordon,  W. J. Hehre,  Chao-Ping Hsu,  T.-C. Jagau,  Yousung Jung,  
 A. Klamt,  Jing Kong,  D. S. Lambrecht,  WanZhen Liang,  N. J. Mayhall,  
 C. W. McCurdy,  J. B. Neaton,  C. Ochsenfeld,  J. A. Parkhill,  R. Peverati,  
 V. A. Rassolov,  Yihan Shao,  L. V. Slipchenko,  R. P. Steele,  
 J. E. Subotnik,  A. J. W. Thom,  A. Tkatchenko,  D. G. Truhlar,  
 T. Van Voorhis,  T. A. Wesolowski,  K. B. Whaley,  H. L. Woodcock III,  
 P. M. Zimmerman,  S. Faraji,  P. M. W. Gill,  M. Head-GordonJ. M. Herbert,  
 A. I. Krylov

 Contributors to earlier versions of Q-Chem not listed above: 
 R. D. Adamson,  B. Austin,  R. Baer,  J. Baker,  G. J. O. Beran,  
 K. Brandhorst,  S. T. Brown,  E. F. C. Byrd,  A. K. Chakraborty,  
 G. K. L. Chan,  Chun-Min Chang,  Yunqing Chen,  C.-L. Cheng,  
 Siu Hung Chien,  D. M. Chipman,  D. L. Crittenden,  H. Dachsel,  
 R. J. Doerksen,  A. D. Dutoi,  R. G. Edgar,  J. Fosso-Tande,  
 L. Fusti-Molnar,  D. Ghosh,  A. Ghysels,  A. Golubeva-Zadorozhnaya,  
 J. Gonthier,  M. S. Gordon,  S. R. Gwaltney,  G. Hawkins,  J. E. Herr,  
 A. Heyden,  S. Hirata,  E. G. Hohenstein,  G. Kedziora,  F. J. Keil,  
 C. Kelley,  Jihan Kim,  R. A. King,  R. Z. Khaliullin,  P. P. Korambath,  
 W. Kurlancheek,  A. Laurent,  A. M. Lee,  M. S. Lee,  S. V. Levchenko,  
 Ching Yeh Lin,  D. Liotard,  E. Livshits,  R. C. Lochan,  I. Lotan,  
 L. A. Martinez-Martinez,  P. E. Maslen,  N. Nair,  D. P. O'Neill,  
 D. Neuhauser,  E. Neuscamman,  C. M. Oana,  R. Olivares-Amaya,  R. Olson,  
 T. M. Perrine,  B. Peters,  P. A. Pieniazek,  A. Prociuk,  Y. M. Rhee,  
 J. Ritchie,  M. A. Rohrdanz,  E. Rosta,  N. J. Russ,  H. F. Schaefer III,  
 M. W. Schmidt,  N. E. Schultz,  S. Sharma,  N. Shenvi,  C. D. Sherrill,  
 A. C. Simmonett,  A. Sodt,  T. Stein,  D. Stuck,  K. S. Thanthiriwatte,  
 V. Vanovschi,  L. Vogt,  Tao Wang,  A. Warshel,  M. A. Watson,  
 C. F. Williams,  Q. Wu,  X. Xu,  Jun Yang,  W. Zhang,  Yan Zhao

 Please cite Q-Chem as follows:
 Y. Shao et al., Mol. Phys. 113, 184-215 (2015)
 DOI: 10.1080/00268976.2014.952696

 Q-Chem 5.4.0 for Intel X86 EM64T Linux

 Parts of Q-Chem use Armadillo 9.800.1 (Horizon Scraper).
 http://arma.sourceforge.net/

 Q-Chem begins on Thu May 27 14:21:20 2021  

Host: node5
0

     Scratch files written to /scratch/gayverjr/EA.3880333315.saved//
Processing $rem in /home/qcsoftware/qchem/builds/qc540rc/qchem/config/preferences:
Processing $rem in /home/gayverjr/.qchemrc:
Core orbitals will be frozen

Checking the input file for inconsistencies... 	...done.

--------------------------------------------------------------
User input:
--------------------------------------------------------------
$molecule
0	1
N        0.0     0.0     1.039
N        0.0     0.0     -1.039
Gh       0.0     0.0     0.0
$end

$rem
JOBTYPE	 sp
INPUT_BOHR 1
METHOD	 eom-ccsd
BASIS	 gen
GUI	 2 
EA_STATES	[0,0,3,0,0,0,0,0]
CC_TRANS_PROP 2
STATE_ANALYSIS 1
$end

$basis
N     0
S   6   1.00
      0.4150110000D+04       0.1845409911D-02
      0.6200840000D+03       0.1416449932D-01
      0.1416880000D+03       0.6863249671D-01
      0.4033670000D+02       0.2285739890D+00
      0.1302670000D+02       0.4661619776D+00
      0.4470030000D+01       0.3656719825D+00
S   2   1.00
      0.5425220000D+01      -0.4133000774D+00
      0.1149150000D+01       0.1224417267D+01      
S   1   1.00
      0.2832050000D+00       0.1000000000D+01       
P   2   1.00
      0.5425220000D+01      0.2379720162D+00
      0.1149150000D+01      0.8589530586D+00
P   1   1.00
      0.2832050000D+00      0.1000000000D+01
****
Gh      0
S   6   1.00
      0.4150110000D+04       0.1845409911D-02
      0.6200840000D+03       0.1416449932D-01
      0.1416880000D+03       0.6863249671D-01
      0.4033670000D+02       0.2285739890D+00
      0.1302670000D+02       0.4661619776D+00
      0.4470030000D+01       0.3656719825D+00
P   1   1.00
      0.5425220000D+01       1.00000
D   1   1.00
      0.1870                 1.0000
F   1   1.00
      0.3492                 1.0000
G   1   1.00
      8.345000D+00           1.000000D+00
****
$end
--------------------------------------------------------------
 ----------------------------------------------------------------
             Standard Nuclear Orientation (Bohr)
    I     Atom           X                Y                Z
 ----------------------------------------------------------------
    1      N       0.0000000000     0.0000000000     1.0390000000
    2      N       0.0000000000     0.0000000000    -1.0390000000
    3      GH      0.0000000000     0.0000000000     0.0000000000
 ----------------------------------------------------------------
 Molecular Point Group                 D2h   NOp =  8
 Largest Abelian Subgroup              D2h   NOp =  8
 Nuclear Repulsion Energy =          23.58036574 hartrees
 There are        7 alpha and        7 beta electrons
 Requested basis set is non-standard
 There are 15 shells and 43 basis functions
 Total memory of 2000 MB is distributed as follows: 
   MEM_STATIC is set to 192 MB
   QALLOC/CCMAN JOB total memory use is  1808 MB
 Warning: actual memory use might exceed 2000 MB

 Total QAlloc Memory Limit   2000 MB
 Mega-Array Size       188 MB
 MEM_STATIC part       192 MB

                       Distance Matrix (Bohrs)
             N (  1)   N (  2)
   N (  2)  2.078000
   GH(  3)  1.039000  1.039000

 A cutoff of  1.0D-14 yielded    120 shell pairs
 There are      1028 function pairs (      1611 Cartesian)
 Smallest overlap matrix eigenvalue = 4.23E-03

 Scale SEOQF with 1.000000e+00/1.000000e+00/1.000000e+00

 Standard Electronic Orientation quadrupole field applied
 Nucleus-field energy     =    -0.0000000045 hartrees
 ================ Generating on-the-fly SAD Guess ================
Attempting to make child job directory: /scratch/gayverjr/EA.3880333315.saved//Frg1/
Creating input file /scratch/gayverjr/EA.3880333315.saved/Frg1.input
using default PutDataFrgm: nothing
calling putenv with: QCSCRATCH=/scratch/gayverjr/EA.3880333315.saved/ 
Spawning Job For Fragment 0
Done Job For Fragment 0
calling putenv with: QCSCRATCH=/scratch/gayverjr 
calling putenv with: QCTHREADS=16 
 Time for running child jobs:  CPU 0.00 s  wall 1.75 s
 ============= Method Specific SAD Guess Constructed =============

 -----------------------------------------------------------------------
  General SCF calculation program by
  Eric Jon Sundstrom, Paul Horn, Yuezhi Mao, Dmitri Zuev, Alec White,
  David Stuck, Shaama M.S., Shane Yost, Joonho Lee, David Small,
  Daniel Levine, Susi Lehtola, Hugh Burton, Evgeny Epifanovsky,
  Bang C. Huynh
 -----------------------------------------------------------------------
 Hartree-Fock
 using 16 threads for integral computing
 -------------------------------------------------------
 OpenMP Integral computing Module                
 Release: version 2.0, May 2017, Q-Chem Inc. Pleasanton 
 -------------------------------------------------------
 A restricted SCF calculation will be
 performed using DIIS
 SCF converges when DIIS error is below 1.0e-08
 ---------------------------------------
  Cycle       Energy         DIIS error
 ---------------------------------------
    1    -108.9979656305      1.11e-01  
    2    -108.7984669689      7.69e-03  
    3    -108.8108108347      1.59e-03  
    4    -108.8113964293      3.75e-04  
    5    -108.8114427168      3.74e-05  
    6    -108.8114431903      3.46e-06  
    7    -108.8114431937      2.34e-07  
    8    -108.8114431937      2.75e-08  
    9    -108.8114431937      2.47e-09  Convergence criterion met
 ---------------------------------------
 SCF time:   CPU 2.48s  wall 1.00s 
 SCF   energy in the final basis set =     -108.8114431937
 Total energy in the final basis set =     -108.8114431937


 ------------------------------------------------------------------------------

   CCMAN2: suite of methods based on coupled cluster
           and equation of motion theories.

   Components:
   * libvmm-1.3-trunk
     by Evgeny Epifanovsky, Ilya Kaliman.
   * libtensor-2.5-trunk
     by Evgeny Epifanovsky, Michael Wormit, Dmitry Zuev, Sam Manzer, 
        Ilya Kaliman.
   * libcc-2.5-trunk
     by Evgeny Epifanovsky, Arik Landau, Tomasz Kus, Kirill Khistyaev, 
        Dmitry Zuev, Prashant Manohar, Xintian Feng, Anna Krylov, 
        Matthew Goldey, Alec White, Thomas Jagau, Kaushik Nanda, 
        Anastasia Gunina, Alexander Kunitsa, Joonho Lee.

   CCMAN original authors:
   Anna I. Krylov, C. David Sherrill, Steven R. Gwaltney,
   Edward F. C. Byrd (2000)
   Sergey V. Levchenko, Lyudmila V. Slipchenko, Tao Wang,
   Ana-Maria C. Cristian (2003)
   Piotr A. Pieniazek, C. Melania Oana, Evgeny Epifanovsky (2007)
   Prashant Manohar (2009)

 ------------------------------------------------------------------------------


 Allocating and initializing 1808MB of RAM...
 Calculation will run on 16 cores.


 Alpha MOs, Restricted
 -- Occupied --                  
-15.712 -15.708  -1.495  -0.770  -0.617  -0.607  -0.607
  1 Ag    1 B1u   2 Ag    2 B1u   3 Ag    1 B3u   1 B2u                        
 -- Virtual --                   
  0.173   0.173   0.427   0.521   0.521   0.669   0.669   0.716
  1 B2g   1 B3g   4 Ag    5 Ag    1 B1g   2 B2g   2 B3g   3 B1u                
  1.019   1.104   1.104   1.302   1.302   1.334   1.420   1.420
  4 B1u   2 B3u   2 B2u   1 Au    5 B1u   6 Ag    3 B2u   3 B3u                
  1.472   1.472   1.900   2.041   2.041   2.555   4.528  12.256
  4 B3u   4 B2u   6 B1u   3 B2g   3 B3g   7 Ag    7 B1u   5 B3u                
 12.256  14.306  25.564  42.976  42.976  43.126  43.306  43.306
  5 B2u   8 B1u   8 Ag    4 B2g   4 B3g   9 Ag    2 B1g  10 Ag                 
 43.830  43.830  44.290  44.290
  5 B2g   5 B3g   3 B1g  11 Ag                                                 

 Beta MOs, Restricted
 -- Occupied --                  
-15.712 -15.708  -1.495  -0.770  -0.617  -0.607  -0.607
  1 Ag    1 B1u   2 Ag    2 B1u   3 Ag    1 B3u   1 B2u                        
 -- Virtual --                   
  0.173   0.173   0.427   0.521   0.521   0.669   0.669   0.716
  1 B2g   1 B3g   4 Ag    5 Ag    1 B1g   2 B2g   2 B3g   3 B1u                
  1.019   1.104   1.104   1.302   1.302   1.334   1.420   1.420
  4 B1u   2 B3u   2 B2u   1 Au    5 B1u   6 Ag    3 B2u   3 B3u                
  1.472   1.472   1.900   2.041   2.041   2.555   4.528  12.256
  4 B3u   4 B2u   6 B1u   3 B2g   3 B3g   7 Ag    7 B1u   5 B3u                
 12.256  14.306  25.564  42.976  42.976  43.126  43.306  43.306
  5 B2u   8 B1u   8 Ag    4 B2g   4 B3g   9 Ag    2 B1g  10 Ag                 
 43.830  43.830  44.290  44.290
  5 B2g   5 B3g   3 B1g  11 Ag                                                 

 Occupation and symmetry of molecular orbitals

 Point group: D2h (8 irreducible representations).

                           Ag   B1g  B2g  B3g  Au   B1u  B2u  B3u   All 
 ------------------------------------------------------------------------
 All molecular orbitals:
  - Alpha                  11   3    5    5    1    8    5    5     43  
  - Beta                   11   3    5    5    1    8    5    5     43  
 ------------------------------------------------------------------------
 Alpha orbitals:
  - Frozen occupied        1    0    0    0    0    1    0    0     2   
  - Active occupied        2    0    0    0    0    1    1    1     5   
  - Active virtual         8    3    5    5    1    6    4    4     36  
  - Frozen virtual         0    0    0    0    0    0    0    0     0   
 ------------------------------------------------------------------------
 Beta orbitals:
  - Frozen occupied        1    0    0    0    0    1    0    0     2   
  - Active occupied        2    0    0    0    0    1    1    1     5   
  - Active virtual         8    3    5    5    1    6    4    4     36  
  - Frozen virtual         0    0    0    0    0    0    0    0     0   
 ------------------------------------------------------------------------

 Import integrals:   CPU 0.00 s  wall 0.00 s

 Import integrals:   CPU 1.34 s  wall 0.22 s

 MP2 amplitudes:   CPU 1.03 s  wall 0.88 s

Running a double precision version
           CCSD T amplitudes will be solved using DIIS.

           Start     Size      MaxIter   EConv     TConv     
           3         7         100       1.00e-06  1.00e-04  
 ------------------------------------------------------------------------------
           Energy (a.u.)   Ediff      Tdiff       Comment
 ------------------------------------------------------------------------------
          -109.06951121                           
     1    -109.05318978   1.63e-02   5.02e-01     
     2    -109.06421178   1.10e-02   8.00e-02     
     3    -109.06383298   3.79e-04   2.56e-02     
     4    -109.06490916   1.08e-03   8.17e-03     Switched to DIIS steps.
     5    -109.06525795   3.49e-04   7.09e-03     
     6    -109.06526930   1.13e-05   1.32e-03     
     7    -109.06526988   5.74e-07   1.68e-04     
     8    -109.06526945   4.23e-07   2.34e-05     
 ------------------------------------------------------------------------------
          -109.06526945                           CCSD T converged.

End of double precision
 SCF energy                 = -108.81144319
 MP2 energy                 = -109.06951121
 CCSD correlation energy    =   -0.25382626
 CCSD total energy          = -109.06526945

 CCSD  T1^2 = 0.0023  T2^2 = 0.1004  Leading amplitudes:

 Amplitude    Orbitals with energies
  0.0196       1 (B3u) A                 ->    2 (B3u) A                  
              -0.6072                          1.1041                     
  0.0196       1 (B3u) B                 ->    2 (B3u) B                  
              -0.6072                          1.1041                     
 -0.0196       1 (B2u) A                 ->    2 (B2u) A                  
              -0.6072                          1.1041                     
 -0.0196       1 (B2u) B                 ->    2 (B2u) B                  
              -0.6072                          1.1041                     

 Amplitude    Orbitals with energies
 -0.1017       1 (B3u) A     1 (B3u) B   ->    1 (B2g) A     1 (B2g) B    
              -0.6072       -0.6072            0.1731        0.1731       
  0.1017       1 (B3u) A     1 (B3u) B   ->    1 (B2g) B     1 (B2g) A    
              -0.6072       -0.6072            0.1731        0.1731       
  0.1017       1 (B3u) B     1 (B3u) A   ->    1 (B2g) A     1 (B2g) B    
              -0.6072       -0.6072            0.1731        0.1731       
 -0.1017       1 (B3u) B     1 (B3u) A   ->    1 (B2g) B     1 (B2g) A    
              -0.6072       -0.6072            0.1731        0.1731       
 -0.1017       1 (B2u) A     1 (B2u) B   ->    1 (B3g) A     1 (B3g) B    
              -0.6072       -0.6072            0.1731        0.1731       
  0.1017       1 (B2u) A     1 (B2u) B   ->    1 (B3g) B     1 (B3g) A    
              -0.6072       -0.6072            0.1731        0.1731       
  0.1017       1 (B2u) B     1 (B2u) A   ->    1 (B3g) A     1 (B3g) B    
              -0.6072       -0.6072            0.1731        0.1731       
 -0.1017       1 (B2u) B     1 (B2u) A   ->    1 (B3g) B     1 (B3g) A    
              -0.6072       -0.6072            0.1731        0.1731       

 Computing CCSD intermediates for later calculations in double precision
 Finished.

Running a double precision version
           CCSD Lambda amplitudes will be solved using DIIS.
           Start     Size      MaxIter   EConv     LConv     
           3         7         100       1.00e-06  1.00e-04  
 ------------------------------------------------------------------------------
            Enorm      Ldiff       Comment
 ------------------------------------------------------------------------------
     1     2.60e-02   1.65e-02     
     2     5.45e-03   2.93e-03     
     3     1.38e-03   4.64e-04     
     4     3.99e-04   3.61e-04     Switched to DIIS steps.
     5     1.24e-04   5.32e-05     
     6     3.54e-05   3.47e-05     
     7     9.22e-06   9.05e-06     
     8     1.92e-06   1.78e-06     
     9     3.64e-07   2.78e-07     
 ------------------------------------------------------------------------------
                                   CCSD Lambda converged.

 CCSD calculation:   CPU 47.71 s  wall 9.01 s

        Solving for EOMEA-CCSD/MP2 B2g transitions.

Running a double precision version
      EOMEA-CCSD/MP2 right amplitudes will be solved using Davidson.
        Amplitudes will be solved using standard  algorithm.
     Hard-coded thresholds: 
     LinDepThresh=1.00e-15  NormThresh=1.00e-06  ReorthogonThresh=1.00e-02

      Roots     MaxVec    MaxIter   Precond   Conv      Shift    
      3         120       60        1         1.00e-05  0.00e+00  
 ------------------------------------------------------------------------------
      Iter ConvRoots NVecs ResNorm Current eigenvalues (eV)
 ------------------------------------------------------------------------------
      0    0      3     1.25e-01   6.1328   18.5993   55.8332   
      1    0      6     3.11e-01   4.9438   17.8791   53.1054   
      2    0      9     1.67e-02   4.4681   17.4671   36.2403   
      3    0      12    1.81e-01   4.4616   17.4554   31.0445   
      4    2      15    1.07e-02   4.4614*  17.4535*  24.0806   
      5    2      16    4.21e-03   4.4614*  17.4535*  23.3097   
      6    2      17    2.41e-03   4.4614*  17.4535*  22.9942   
      7    2      18    2.34e-03   4.4614*  17.4535*  22.7532   
      8    2      19    1.50e-03   4.4613*  17.4535*  22.5726   
      9    2      20    1.77e-04   4.4614*  17.4535*  22.5376   
      10   2      21    1.87e-05   4.4614*  17.4535*  22.5349   
      11   2      22    1.06e-05   4.4614*  17.4535*  22.5343   
      12   2      23    1.02e-05   4.4614*  17.4535*  22.5333   
      13   2      24    2.24e-05   4.4614*  17.4534*  22.5324   
      14   2      25    1.69e-02   4.4614*  17.4535*  22.2135   
      15   2      26    9.94e-04   4.4614*  17.4535*  21.9460   
      16   2      27    7.11e-05   4.4614*  17.4535*  21.9283   
      17   2      28    9.70e-06   4.4614*  17.4535*  21.9270   
      18   3      29    1.82e-06   4.4614*  17.4535*  21.9269*  

     Davidson procedure converged

 EOMEA transition 1/B2g
 Total energy = -108.90131733 a.u.  Excitation energy = 4.4614 eV.
 R1^2 = 0.9721  R2^2 = 0.0279  Res^2 = 3.52e-07
 Conv-d = yes

 Amplitude    Transitions between orbitals
  0.9857       infty       ->    1 (B2g) B                  
 -0.0195       infty       ->    2 (B2g) B                  
  0.0115       infty       ->    3 (B2g) B                  

              Summary of significant orbitals:

               Number  Type             Irrep      Energy
               8       Vir  Beta        1 (B2g)      0.1731
               13      Vir  Beta        2 (B2g)      0.6685
               27      Vir  Beta        3 (B2g)      2.0408


 EOMEA transition 2/B2g
 Total energy = -108.42386644 a.u.  Excitation energy = 17.4535 eV.
 R1^2 = 0.9745  R2^2 = 0.0255  Res^2 = 1.93e-06
 Conv-d = yes

 Amplitude    Transitions between orbitals
  0.9863       infty       ->    2 (B2g) B                  
 -0.0303       infty       ->    3 (B2g) B                  
  0.0294       infty       ->    1 (B2g) B                  

              Summary of significant orbitals:

               Number  Type             Irrep      Energy
               8       Vir  Beta        1 (B2g)      0.1731
               13      Vir  Beta        2 (B2g)      0.6685
               27      Vir  Beta        3 (B2g)      2.0408


 EOMEA transition 3/B2g
 Total energy = -108.25947188 a.u.  Excitation energy = 21.9269 eV.
 R1^2 = 0.0000  R2^2 = 1.0000  Res^2 = 3.17e-06
 Conv-d = yes

 Amplitude    Transitions between orbitals
  0.5659       3 (Ag) A    ->    1 (B2g) A     4 (Ag) B     
 -0.5659       3 (Ag) A    ->    4 (Ag) B      1 (B2g) A    
  0.5658       3 (Ag) B    ->    4 (Ag) B      1 (B2g) B    
 -0.5658       3 (Ag) B    ->    1 (B2g) B     4 (Ag) B     
 -0.5658       3 (Ag) A    ->    4 (Ag) A      1 (B2g) B    
  0.5658       3 (Ag) A    ->    1 (B2g) B     4 (Ag) A     

              Summary of significant orbitals:

               Number  Type             Irrep      Energy
               5       Occ  Alpha       3 (Ag)     -0.6170
               5       Occ  Beta        3 (Ag)     -0.6170
               10      Vir  Alpha       4 (Ag)      0.4271
               8       Vir  Alpha       1 (B2g)      0.1731
               10      Vir  Beta        4 (Ag)      0.4271
               8       Vir  Beta        1 (B2g)      0.1731


 EEs and amplitudes of EOMEA can not be exported to fchk file
Running a double precision version
      EOMEA-CCSD/MP2 left amplitudes will be solved using Davidson.
        Amplitudes will be solved using MOM  algorithm.
     Hard-coded thresholds: 
     LinDepThresh=1.00e-15  NormThresh=1.00e-06  ReorthogonThresh=1.00e-02

      Roots     MaxVec    MaxIter   Precond   Conv      Shift    
      3         120       60        1         1.00e-05  0.00e+00  
 ------------------------------------------------------------------------------
      Iter ConvRoots NVecs ResNorm Current eigenvalues (eV)
 ------------------------------------------------------------------------------
      0    0      3     2.27e-03   4.4614   17.4535   21.9269   
      1    0      6     2.31e-03   4.4614   17.4535   21.9268   
      2    0      9     6.37e-05   4.4614   17.4535   21.9268   
      3    3      12    3.34e-06   4.4614*  17.4536*  21.9268*  

     Davidson procedure converged

 Excited state properties for  EOMEA-CCSD transition 1/B2g
 Dipole moment (a.u.): 0.000000 (X 0.000000, Y 0.000000, Z 0.000000)
 R-squared (a.u.): 45.523408 (XX 10.007319, YY 8.737375, ZZ 26.778714)
 Gauge origin (a.u.): (0.000000, 0.000000, 0.000000)
 Angular momentum (a.u.) against gauge origin: 
 (X 0.000000i, Y 0.000000i, Z 0.000000i)
 Traces of the OPDMs: Tr(AA) 7.000000, Tr(BB) 8.000000

State OPDM analysis using libwa module will be excecuted
 NOs (alpha)
   Occupation of frontier NOs:
      0.0031   0.9971
   Number of electrons:  7.000000
 NOs (beta)
   Occupation of frontier NOs:
      0.0050   0.9851
   Number of electrons:  8.000000
 NOs (spin-traced)
   Occupation of frontier NOs:
      0.0057   0.9878
   Number of electrons: 15.000000
   Number of unpaired electrons: n_u =  1.02510, n_u,nl =  1.00020
   NO participation ratio (PR_NO):  1.076835
 
 Mulliken Population Analysis
 Atom      Charge (e)        Spin (e)
 ------------------------------------
 1  N       -0.388314        0.290859
 2  N       -0.388314        0.290859
 3 GH       -0.223372        0.418283
 ------------------------------------
 Sum:       -1.000000        1.000000
 
 Multipole moment analysis of the density matrix
   Molecular charge:                      -1.000000
   Number of electrons:                   15.000000
     Center of electronic charge [Ang]: [  0.000000,   0.000000,  -0.000000]
   Total nuclear charge:                  14.000000
     Center of nuclear charge [Ang]:    [  0.000000,   0.000000,   0.000000]
   Dipole moment [D]:                     0.000000
     Cartesian components [D]:          [ -0.000000,  -0.000000,   0.000000]
   RMS size of the density [Ang]:         0.921877
     Cartesian components [Ang]:        [  0.432229,   0.403874,   0.707050]
 

 Excited state properties for  EOMEA-CCSD transition 2/B2g
 Dipole moment (a.u.): 0.000000 (X 0.000000, Y 0.000000, Z 0.000000)
 R-squared (a.u.): 51.221059 (XX 13.278936, YY 9.668039, ZZ 28.274084)
 Gauge origin (a.u.): (0.000000, 0.000000, 0.000000)
 Angular momentum (a.u.) against gauge origin: 
 (X 0.000000i, Y 0.000000i, Z 0.000000i)
 Traces of the OPDMs: Tr(AA) 7.000000, Tr(BB) 8.000000

State OPDM analysis using libwa module will be excecuted
 NOs (alpha)
   Occupation of frontier NOs:
      0.0073   0.9934
   Number of electrons:  7.000000
 NOs (beta)
   Occupation of frontier NOs:
      0.0113   0.9749
   Number of electrons:  8.000000
 NOs (spin-traced)
   Occupation of frontier NOs:
      0.0181   0.9752
   Number of electrons: 15.000000
   Number of unpaired electrons: n_u =  1.04681, n_u,nl =  1.00124
   NO participation ratio (PR_NO):  1.151472
 
 Mulliken Population Analysis
 Atom      Charge (e)        Spin (e)
 ------------------------------------
 1  N        0.019782       -0.103993
 2  N        0.019782       -0.103993
 3 GH       -1.039565        1.207986
 ------------------------------------
 Sum:       -1.000000        1.000000
 
 Multipole moment analysis of the density matrix
   Molecular charge:                      -1.000000
   Number of electrons:                   15.000000
     Center of electronic charge [Ang]: [ -0.000000,   0.000000,  -0.000000]
   Total nuclear charge:                  14.000000
     Center of nuclear charge [Ang]:    [  0.000000,   0.000000,   0.000000]
   Dipole moment [D]:                     0.000000
     Cartesian components [D]:          [  0.000000,  -0.000000,   0.000000]
   RMS size of the density [Ang]:         0.977867
     Cartesian components [Ang]:        [  0.497894,   0.424839,   0.726524]
 

 Excited state properties for  EOMEA-CCSD transition 3/B2g
 Dipole moment (a.u.): 0.000000 (X 0.000000, Y 0.000000, Z 0.000000)
 R-squared (a.u.): 49.010792 (XX 12.424563, YY 12.040056, ZZ 24.546173)
 Gauge origin (a.u.): (0.000000, 0.000000, 0.000000)
 Angular momentum (a.u.) against gauge origin: 
 (X 0.000000i, Y 0.000000i, Z 0.000000i)
 Traces of the OPDMs: Tr(AA) 7.000000, Tr(BB) 8.000000

State OPDM analysis using libwa module will be excecuted
 NOs (alpha)
   Occupation of frontier NOs:
      0.3292   0.3429
   Number of electrons:  7.000000
 NOs (beta)
   Occupation of frontier NOs:
      0.6567   0.6584
   Number of electrons:  8.000000
 NOs (spin-traced)
   Occupation of frontier NOs:
      0.9851   0.9875
   Number of electrons: 15.000000
   Number of unpaired electrons: n_u =  3.00000, n_u,nl =  3.00003
   NO participation ratio (PR_NO):  3.084965
 
 Mulliken Population Analysis
 Atom      Charge (e)        Spin (e)
 ------------------------------------
 1  N        0.159517        0.273471
 2  N        0.159517        0.273471
 3 GH       -1.319034        0.453058
 ------------------------------------
 Sum:       -1.000000        1.000000
 
 Multipole moment analysis of the density matrix
   Molecular charge:                      -1.000000
   Number of electrons:                   15.000000
     Center of electronic charge [Ang]: [ -0.000000,   0.000000,  -0.000000]
   Total nuclear charge:                  14.000000
     Center of nuclear charge [Ang]:    [  0.000000,   0.000000,   0.000000]
   Dipole moment [D]:                     0.000000
     Cartesian components [D]:          [  0.000000,  -0.000000,   0.000000]
   RMS size of the density [Ang]:         0.956536
     Cartesian components [Ang]:        [  0.481611,   0.474100,   0.676936]
 

 EOMEA-CCSD calculation:   CPU 36.49 s  wall 7.60 s


 Start computing the transition properties

 ------------------------------------------------------------------------------
 State A: eomea_ccsd/b: 1/B2g
 State B: eomea_ccsd/b: 2/B2g
 Energy GAP = 0.477451 a.u. = 12.992107 eV
 Transition dipole moment (a.u.):
   A->B: 0.000000 (X 0.000000, Y 0.000000, Z 0.000000)
   B->A: 0.000000 (X 0.000000, Y 0.000000, Z 0.000000)
 Oscillator strength (a.u.): 0.000000
 Transition angular momentum against gauge origin (a.u.):
   A->B:  (X 0.000000i, Y 0.000000i, Z 0.000000i)
   B->A:  (X 0.000000i, Y 0.000000i, Z 0.000000i)

 Electronic circular dichroism (ECD):
 Transition dipole moment/angular momentum:
   A->B->A:  (X 0.000000, Y 0.000000, Z 0.000000)
   Rotatory strength, length gauge (a.u.): 0.000000
 Transition linear momentum/angular momentum:
   A->B->A:  (X 0.000000, Y 0.000000, Z 0.000000)
   Rotatory strength, velocity gauge (a.u.): 0.000000

 Norm of one-particle transition density matrix:
   A->B: 0.983394;   B->A: 0.984305
   ||gamma^AB||*||gamma^BA||: 0.967960

State analysis of transition OPDM (A->B) using libwa module will be excecuted
 
 CT numbers (Mulliken)
   omega =     0.9671 (alpha:     0.0096, beta:     0.9574)
   <Phe> =     0.0199 (alpha:     0.8048, beta:     0.0120)
 
 Exciton analysis of the transition density matrix
 Total:
   Trans. dipole moment [D]:             0.000000
     Cartesian components [D]:         [  0.000000,  -0.000000,   0.000000]
   <r_h> [Ang]:                        [ -0.000000,   0.000000,  -0.000000]
   <r_e> [Ang]:                        [ -0.000000,   0.000000,  -0.000000]
   |<r_e - r_h>| [Ang]:                  0.000000
   Hole size [Ang]:                      1.226683
     Cartesian components [Ang]:       [  0.761286,   0.441738,   0.854437]
   Electron size [Ang]:                  1.818239
     Cartesian components [Ang]:       [  1.247251,   0.721838,   1.108741]
   RMS electron-hole separation [Ang]:   2.188065
     Cartesian components [Ang]:       [  1.459781,   0.845390,   1.393551]
   Covariance(r_h, r_e) [Ang^2]:         0.011557
   Correlation coefficient:              0.005182
   Center-of-mass size [Ang]:            1.099302
     Cartesian components [Ang]:       [  0.731338,   0.423581,   0.702985]
 
 Alpha spin:
   Trans. dipole moment [D]:             0.000000
     Cartesian components [D]:         [ -0.000000,  -0.000000,  -0.000000]
   <r_h> [Ang]:                        [  0.000000,  -0.000000,  -0.000000]
   <r_e> [Ang]:                        [  0.000000,  -0.000000,  -0.000000]
   |<r_e - r_h>| [Ang]:                  0.000000
   Hole size [Ang]:                      1.128997
     Cartesian components [Ang]:       [  0.524650,   0.491624,   0.870450]
   Electron size [Ang]:                  1.301708
     Cartesian components [Ang]:       [  0.607951,   0.570047,   0.999943]
   RMS electron-hole separation [Ang]:   1.331822
     Cartesian components [Ang]:       [  0.697270,   0.670517,   0.915407]
   Covariance(r_h, r_e) [Ang^2]:         0.597664
   Correlation coefficient:              0.406678
   Center-of-mass size [Ang]:            1.020344
     Cartesian components [Ang]:       [  0.448201,   0.413431,   0.818103]
 
 Beta spin:
   Trans. dipole moment [D]:             0.000000
     Cartesian components [D]:         [  0.000000,  -0.000000,   0.000000]
   <r_h> [Ang]:                        [ -0.000000,   0.000000,  -0.000000]
   <r_e> [Ang]:                        [ -0.000000,   0.000000,  -0.000000]
   |<r_e - r_h>| [Ang]:                  0.000000
   Hole size [Ang]:                      1.227628
     Cartesian components [Ang]:       [  0.763297,   0.441207,   0.854274]
   Electron size [Ang]:                  1.822700
     Cartesian components [Ang]:       [  1.252034,   0.723206,   1.109783]
   RMS electron-hole separation [Ang]:   2.194995
     Cartesian components [Ang]:       [  1.465448,   0.846969,   1.397537]
   Covariance(r_h, r_e) [Ang^2]:         0.005650
   Correlation coefficient:              0.002525
   Center-of-mass size [Ang]:            1.100069
     Cartesian components [Ang]:       [  0.733636,   0.423682,   0.701729]

 ------------------------------------------------------------------------------
 State A: eomea_ccsd/b: 1/B2g
 State B: eomea_ccsd/b: 3/B2g
 Energy GAP = 0.641845 a.u. = 17.465513 eV
 Transition dipole moment (a.u.):
   A->B: 0.000000 (X 0.000000, Y 0.000000, Z 0.000000)
   B->A: 0.000000 (X 0.000000, Y 0.000000, Z 0.000000)
 Oscillator strength (a.u.): -0.000000
 Transition angular momentum against gauge origin (a.u.):
   A->B:  (X 0.000000i, Y 0.000000i, Z 0.000000i)
   B->A:  (X 0.000000i, Y 0.000000i, Z 0.000000i)

 Electronic circular dichroism (ECD):
 Transition dipole moment/angular momentum:
   A->B->A:  (X 0.000000, Y 0.000000, Z 0.000000)
   Rotatory strength, length gauge (a.u.): -0.000000
 Transition linear momentum/angular momentum:
   A->B->A:  (X 0.000000, Y 0.000000, Z 0.000000)
   Rotatory strength, velocity gauge (a.u.): -0.000000

 Norm of one-particle transition density matrix:
   A->B: 0.793646;   B->A: 0.797423
   ||gamma^AB||*||gamma^BA||: 0.632871

State analysis of transition OPDM (A->B) using libwa module will be excecuted
 
 CT numbers (Mulliken)
   omega =     0.6299 (alpha:     0.3149, beta:     0.3150)
   <Phe> =     0.0001 (alpha:     0.0001, beta:     0.0001)
 
 Exciton analysis of the transition density matrix
 Total:
   Trans. dipole moment [D]:             0.000000
     Cartesian components [D]:         [  0.000000,   0.000000,  -0.000000]
   <r_h> [Ang]:                        [  0.000000,   0.000000,   0.000000]
   <r_e> [Ang]:                        [ -0.000000,   0.000000,   0.000000]
   |<r_e - r_h>| [Ang]:                  0.000000
   Hole size [Ang]:                      1.139979
     Cartesian components [Ang]:       [  0.395348,   0.401878,   0.990831]
   Electron size [Ang]:                  1.685163
     Cartesian components [Ang]:       [  1.017041,   1.113556,   0.751928]
   RMS electron-hole separation [Ang]:   1.999018
     Cartesian components [Ang]:       [  1.085377,   1.178176,   1.195797]
   Covariance(r_h, r_e) [Ang^2]:         0.071626
   Correlation coefficient:              0.037285
   Center-of-mass size [Ang]:            1.034720
     Cartesian components [Ang]:       [  0.548475,   0.594753,   0.645049]
 
 Alpha spin:
   Trans. dipole moment [D]:             0.000000
     Cartesian components [D]:         [  0.000000,   0.000000,  -0.000000]
   <r_h> [Ang]:                        [  0.000000,   0.000000,   0.000000]
   <r_e> [Ang]:                        [ -0.000000,   0.000000,   0.000000]
   |<r_e - r_h>| [Ang]:                  0.000000
   Hole size [Ang]:                      1.140014
     Cartesian components [Ang]:       [  0.395360,   0.401898,   0.990859]
   Electron size [Ang]:                  1.685138
     Cartesian components [Ang]:       [  1.017026,   1.113536,   0.751921]
   RMS electron-hole separation [Ang]:   1.999021
     Cartesian components [Ang]:       [  1.085388,   1.178151,   1.195817]
   Covariance(r_h, r_e) [Ang^2]:         0.071619
   Correlation coefficient:              0.037281
   Center-of-mass size [Ang]:            1.034717
     Cartesian components [Ang]:       [  0.548460,   0.594754,   0.645057]
 
 Beta spin:
   Trans. dipole moment [D]:             0.000000
     Cartesian components [D]:         [ -0.000000,  -0.000000,   0.000000]
   <r_h> [Ang]:                        [  0.000000,   0.000000,   0.000000]
   <r_e> [Ang]:                        [ -0.000000,   0.000000,   0.000000]
   |<r_e - r_h>| [Ang]:                  0.000000
   Hole size [Ang]:                      1.139943
     Cartesian components [Ang]:       [  0.395336,   0.401858,   0.990803]
   Electron size [Ang]:                  1.685188
     Cartesian components [Ang]:       [  1.017056,   1.113575,   0.751935]
   RMS electron-hole separation [Ang]:   1.999015
     Cartesian components [Ang]:       [  1.085367,   1.178202,   1.195777]
   Covariance(r_h, r_e) [Ang^2]:         0.071634
   Correlation coefficient:              0.037289
   Center-of-mass size [Ang]:            1.034722
     Cartesian components [Ang]:       [  0.548490,   0.594752,   0.645041]

 ------------------------------------------------------------------------------
 State A: eomea_ccsd/b: 2/B2g
 State B: eomea_ccsd/b: 3/B2g
 Energy GAP = 0.164395 a.u. = 4.473406 eV
 Transition dipole moment (a.u.):
   A->B: 0.000000 (X 0.000000, Y 0.000000, Z 0.000000)
   B->A: 0.000000 (X 0.000000, Y 0.000000, Z 0.000000)
 Oscillator strength (a.u.): -0.000000
 Transition angular momentum against gauge origin (a.u.):
   A->B:  (X 0.000000i, Y 0.000000i, Z 0.000000i)
   B->A:  (X 0.000000i, Y 0.000000i, Z 0.000000i)

 Electronic circular dichroism (ECD):
 Transition dipole moment/angular momentum:
   A->B->A:  (X 0.000000, Y 0.000000, Z 0.000000)
   Rotatory strength, length gauge (a.u.): 0.000000
 Transition linear momentum/angular momentum:
   A->B->A:  (X 0.000000, Y 0.000000, Z 0.000000)
   Rotatory strength, velocity gauge (a.u.): -0.000000

 Norm of one-particle transition density matrix:
   A->B: 0.075686;   B->A: 0.074678
   ||gamma^AB||*||gamma^BA||: 0.005652

State analysis of transition OPDM (A->B) using libwa module will be excecuted
 
 CT numbers (Mulliken)
   omega =     0.0057 (alpha:     0.0029, beta:     0.0029)
   <Phe> =     0.1083 (alpha:     0.1084, beta:     0.1082)
 
 Exciton analysis of the transition density matrix
 Total:
   Trans. dipole moment [D]:             0.000000
     Cartesian components [D]:         [  0.000000,  -0.000000,  -0.000000]
   <r_h> [Ang]:                        [  0.000000,   0.000000,   0.000000]
   <r_e> [Ang]:                        [  0.000000,   0.000000,   0.000000]
   |<r_e - r_h>| [Ang]:                  0.000000
   Hole size [Ang]:                      1.358275
     Cartesian components [Ang]:       [  0.568756,   0.539405,   1.109266]
   Electron size [Ang]:                  1.654714
     Cartesian components [Ang]:       [  1.012279,   1.092630,   0.720783]
   RMS electron-hole separation [Ang]:   2.111768
     Cartesian components [Ang]:       [  1.156021,   1.215685,   1.282688]
   Covariance(r_h, r_e) [Ang^2]:         0.061713
   Correlation coefficient:              0.027458
   Center-of-mass size [Ang]:            1.084714
     Cartesian components [Ang]:       [  0.583095,   0.610677,   0.680939]
 
 Alpha spin:
   Trans. dipole moment [D]:             0.000000
     Cartesian components [D]:         [ -0.000000,  -0.000000,   0.000000]
   <r_h> [Ang]:                        [  0.000000,   0.000000,   0.000000]
   <r_e> [Ang]:                        [  0.000000,   0.000000,   0.000000]
   |<r_e - r_h>| [Ang]:                  0.000000
   Hole size [Ang]:                      1.358478
     Cartesian components [Ang]:       [  0.568871,   0.539471,   1.109423]
   Electron size [Ang]:                  1.654634
     Cartesian components [Ang]:       [  1.011744,   1.092942,   0.720876]
   RMS electron-hole separation [Ang]:   2.111694
     Cartesian components [Ang]:       [  1.155585,   1.215891,   1.282764]
   Covariance(r_h, r_e) [Ang^2]:         0.062011
   Correlation coefficient:              0.027588
   Center-of-mass size [Ang]:            1.084815
     Cartesian components [Ang]:       [  0.582903,   0.610883,   0.681080]
 
 Beta spin:
   Trans. dipole moment [D]:             0.000000
     Cartesian components [D]:         [  0.000000,   0.000000,  -0.000000]
   <r_h> [Ang]:                        [  0.000000,   0.000000,   0.000000]
   <r_e> [Ang]:                        [  0.000000,   0.000000,   0.000000]
   |<r_e - r_h>| [Ang]:                  0.000000
   Hole size [Ang]:                      1.358072
     Cartesian components [Ang]:       [  0.568641,   0.539338,   1.109108]
   Electron size [Ang]:                  1.654794
     Cartesian components [Ang]:       [  1.012813,   1.092318,   0.720690]
   RMS electron-hole separation [Ang]:   2.111841
     Cartesian components [Ang]:       [  1.156457,   1.215478,   1.282611]
   Covariance(r_h, r_e) [Ang^2]:         0.061415
   Correlation coefficient:              0.027328
   Center-of-mass size [Ang]:            1.084612
     Cartesian components [Ang]:       [  0.583286,   0.610471,   0.680797]


 All requested transition properties have been computed

 Transition Properties:   CPU 2.43 s  wall 0.67 s

 Total ccman2 time:   CPU 91.06 s  wall 18.98 s


 --------------------------------------------------------------
             Orbital Energies (a.u.) and Symmetries
 --------------------------------------------------------------

 Alpha MOs, Restricted
 -- Occupied --                  
-15.712 -15.708  -1.495  -0.770  -0.617  -0.607  -0.607
  1 Ag    1 B1u   2 Ag    2 B1u   3 Ag    1 B3u   1 B2u                        
 -- Virtual --                   
  0.173   0.173   0.427   0.521   0.521   0.669   0.669   0.716
  1 B2g   1 B3g   4 Ag    5 Ag    1 B1g   2 B2g   2 B3g   3 B1u                
  1.019   1.104   1.104   1.302   1.302   1.334   1.420   1.420
  4 B1u   2 B3u   2 B2u   1 Au    5 B1u   6 Ag    3 B2u   3 B3u                
  1.472   1.472   1.900   2.041   2.041   2.555   4.528  12.256
  4 B3u   4 B2u   6 B1u   3 B2g   3 B3g   7 Ag    7 B1u   5 B3u                
 12.256  14.306  25.564  42.976  42.976  43.126  43.306  43.306
  5 B2u   8 B1u   8 Ag    4 B2g   4 B3g   9 Ag    2 B1g  10 Ag                 
 43.830  43.830  44.290  44.290
  5 B2g   5 B3g   3 B1g  11 Ag                                                 

 Beta MOs, Restricted
 -- Occupied --                  
-15.712 -15.708  -1.495  -0.770  -0.617  -0.607  -0.607
  1 Ag    1 B1u   2 Ag    2 B1u   3 Ag    1 B3u   1 B2u                        
 -- Virtual --                   
  0.173   0.173   0.427   0.521   0.521   0.669   0.669   0.716
  1 B2g   1 B3g   4 Ag    5 Ag    1 B1g   2 B2g   2 B3g   3 B1u                
  1.019   1.104   1.104   1.302   1.302   1.334   1.420   1.420
  4 B1u   2 B3u   2 B2u   1 Au    5 B1u   6 Ag    3 B2u   3 B3u                
  1.472   1.472   1.900   2.041   2.041   2.555   4.528  12.256
  4 B3u   4 B2u   6 B1u   3 B2g   3 B3g   7 Ag    7 B1u   5 B3u                
 12.256  14.306  25.564  42.976  42.976  43.126  43.306  43.306
  5 B2u   8 B1u   8 Ag    4 B2g   4 B3g   9 Ag    2 B1g  10 Ag                 
 43.830  43.830  44.290  44.290
  5 B2g   5 B3g   3 B1g  11 Ag                                                 
 --------------------------------------------------------------

          Ground-State Mulliken Net Atomic Charges

     Atom                 Charge (a.u.)
  ----------------------------------------
      1 N                    -0.075972
      2 N                    -0.075972
      3 GH                    0.151945
  ----------------------------------------
  Sum of atomic charges =     0.000000

 -----------------------------------------------------------------
                    Cartesian Multipole Moments
 -----------------------------------------------------------------
    Charge (ESU x 10^10)
                -0.0000
    Dipole Moment (Debye)
         X      -0.0000      Y      -0.0000      Z       0.0000
       Tot       0.0000
    Quadrupole Moments (Debye-Ang)
        XX     -10.2323     XY      -0.0000     YY     -10.2323
        XZ       0.0000     YZ       0.0000     ZZ     -11.3181
    Octopole Moments (Debye-Ang^2)
       XXX      -0.0000    XXY       0.0000    XYY      -0.0000
       YYY      -0.0000    XXZ       0.0000    XYZ       0.0000
       YYZ       0.0000    XZZ      -0.0000    YZZ      -0.0000
       ZZZ       0.0000
    Hexadecapole Moments (Debye-Ang^3)
      XXXX      -7.8784   XXXY      -0.0000   XXYY      -2.6261
      XYYY      -0.0000   YYYY      -7.8784   XXXZ       0.0000
      XXYZ       0.0000   XYYZ       0.0000   YYYZ       0.0000
      XXZZ      -5.4469   XYZZ       0.0000   YYZZ      -5.4469
      XZZZ       0.0000   YZZZ      -0.0000   ZZZZ     -27.6742
 -----------------------------------------------------------------
 Total job time:  23.45s(wall), 97.25s(cpu) 
 Thu May 27 14:21:44 2021

        *************************************************************
        *                                                           *
        *  Thank you very much for using Q-Chem.  Have a nice day.  *
        *                                                           *
        *************************************************************


