Jobname.Temp
SP        R                             non-standard        
Number of atoms                            I                3
Charge                                     I                0
Multiplicity                               I                1
Number of electrons                        I               14
Number of alpha electrons                  I                7
Number of beta electrons                   I                7
Atomic numbers                             I   N=           3
           7           7           0
Current cartesian coordinates              R   N=           9
  0.00000000E+00  0.00000000E+00  1.03900000E+00  0.00000000E+00  0.00000000E+00
 -1.03900000E+00  0.00000000E+00  0.00000000E+00  0.00000000E+00
Nuclear charges                            R   N=           3
  7.00000000E+00  7.00000000E+00  0.00000000E+00
Number of basis functions                  I               53
Number of contracted shells                I               11
Number of primitive shells                 I               28
Highest angular momentum                   I                4
Largest degree of contraction              I                6
Shell types                                I   N=          11
           0          -1          -1           0          -1          -1
           0           1           2           3           4
Number of primitives per shell             I   N=          11
           6           2           1           6           2           1
           6           1           1           1           1
Shell to atom map                          I   N=          11
           1           1           1           2           2           2
           3           3           3           3           3
Primitive exponents                        R   N=          28
  4.15011000E+03  6.20084000E+02  1.41688000E+02  4.03367000E+01  1.30267000E+01
  4.47003000E+00  5.42522000E+00  1.14915000E+00  2.83205000E-01  4.15011000E+03
  6.20084000E+02  1.41688000E+02  4.03367000E+01  1.30267000E+01  4.47003000E+00
  5.42522000E+00  1.14915000E+00  2.83205000E-01  4.15011000E+03  6.20084000E+02
  1.41688000E+02  4.03367000E+01  1.30267000E+01  4.47003000E+00  5.42522000E+00
  1.87000000E-01  3.49200000E-01  8.34500000E+00
Contraction coefficients                   R   N=          28
  1.84540991E-03  1.41644993E-02  6.86324967E-02  2.28573989E-01  4.66161978E-01
  3.65671983E-01 -4.13300077E-01  1.22441727E+00  1.00000000E+00  1.84540991E-03
  1.41644993E-02  6.86324967E-02  2.28573989E-01  4.66161978E-01  3.65671983E-01
 -4.13300077E-01  1.22441727E+00  1.00000000E+00  1.84540991E-03  1.41644993E-02
  6.86324967E-02  2.28573989E-01  4.66161978E-01  3.65671983E-01  1.00000000E+00
  1.00000000E+00  1.00000000E+00  1.00000000E+00
P(S=P) Contraction coefficients            R   N=          28
  0.00000000E+00  0.00000000E+00  0.00000000E+00  0.00000000E+00  0.00000000E+00
  0.00000000E+00  2.37972016E-01  8.58953059E-01  1.00000000E+00  0.00000000E+00
  0.00000000E+00  0.00000000E+00  0.00000000E+00  0.00000000E+00  0.00000000E+00
  2.37972016E-01  8.58953059E-01  1.00000000E+00  0.00000000E+00  0.00000000E+00
  0.00000000E+00  0.00000000E+00  0.00000000E+00  0.00000000E+00  0.00000000E+00
  0.00000000E+00  0.00000000E+00  0.00000000E+00
Coordinates of each shell                  R   N=          33
  0.00000000E+00  0.00000000E+00  1.03900000E+00  0.00000000E+00  0.00000000E+00
  1.03900000E+00  0.00000000E+00  0.00000000E+00  1.03900000E+00  0.00000000E+00
  0.00000000E+00 -1.03900000E+00  0.00000000E+00  0.00000000E+00 -1.03900000E+00
  0.00000000E+00  0.00000000E+00 -1.03900000E+00  0.00000000E+00  0.00000000E+00
  0.00000000E+00  0.00000000E+00  0.00000000E+00  0.00000000E+00  0.00000000E+00
  0.00000000E+00  0.00000000E+00  0.00000000E+00  0.00000000E+00  0.00000000E+00
  0.00000000E+00  0.00000000E+00  0.00000000E+00
Overlap Matrix                             R   N=        1431
  1.00000000E+00  2.40200747E-01  1.00000000E+00  0.00000000E+00  0.00000000E+00
  1.00000000E+00  0.00000000E+00  0.00000000E+00  0.00000000E+00  1.00000000E+00
 -7.15408453E-17  0.00000000E+00  0.00000000E+00  0.00000000E+00  1.00000000E+00
  2.08869845E-01  7.52192071E-01  0.00000000E+00  0.00000000E+00  0.00000000E+00
  1.00000000E+00  0.00000000E+00  0.00000000E+00  5.16001040E-01  0.00000000E+00
  0.00000000E+00  0.00000000E+00  1.00000000E+00  0.00000000E+00  0.00000000E+00
  0.00000000E+00  5.16001040E-01  0.00000000E+00  0.00000000E+00  0.00000000E+00
  1.00000000E+00 -1.70821127E-17  0.00000000E+00  0.00000000E+00  0.00000000E+00
  5.16001040E-01  0.00000000E+00  0.00000000E+00  0.00000000E+00  1.00000000E+00
  8.76795515E-06  9.13944065E-03  0.00000000E+00  0.00000000E+00 -2.39350021E-02
  6.47375228E-02  0.00000000E+00  0.00000000E+00 -1.37108887E-01  1.00000000E+00
  9.13944065E-03  1.14253642E-01  0.00000000E+00  0.00000000E+00 -1.87023495E-01
  2.89338908E-01  0.00000000E+00  0.00000000E+00 -5.01284254E-01  2.40200747E-01
  1.00000000E+00  0.00000000E+00  0.00000000E+00  6.51452382E-02  0.00000000E+00
  0.00000000E+00  0.00000000E+00  1.91608952E-01  0.00000000E+00  0.00000000E+00
  0.00000000E+00  0.00000000E+00  1.00000000E+00  0.00000000E+00  0.00000000E+00
  0.00000000E+00  6.51452382E-02  0.00000000E+00  0.00000000E+00  0.00000000E+00
  1.91608952E-01  0.00000000E+00  0.00000000E+00  0.00000000E+00  0.00000000E+00
  1.00000000E+00  2.39350021E-02  1.87023495E-01  0.00000000E+00  0.00000000E+00
 -2.69175054E-01  2.11890652E-01  0.00000000E+00  0.00000000E+00 -1.87721528E-01
  7.15408453E-17  0.00000000E+00  0.00000000E+00  0.00000000E+00  1.00000000E+00
  6.47375228E-02  2.89338908E-01  0.00000000E+00  0.00000000E+00 -2.11890652E-01
  5.42562773E-01  0.00000000E+00  0.00000000E+00 -5.99992738E-01  2.08869845E-01
  7.52192071E-01  0.00000000E+00  0.00000000E+00  0.00000000E+00  1.00000000E+00
  0.00000000E+00  0.00000000E+00  1.91608952E-01  0.00000000E+00  0.00000000E+00
  0.00000000E+00  5.42562773E-01  0.00000000E+00  0.00000000E+00  0.00000000E+00
  0.00000000E+00  5.16001040E-01  0.00000000E+00  0.00000000E+00  0.00000000E+00
  1.00000000E+00  0.00000000E+00  0.00000000E+00  0.00000000E+00  1.91608952E-01
  0.00000000E+00  0.00000000E+00  0.00000000E+00  5.42562773E-01  0.00000000E+00
  0.00000000E+00  0.00000000E+00  0.00000000E+00  5.16001040E-01  0.00000000E+00
  0.00000000E+00  0.00000000E+00  1.00000000E+00  1.37108887E-01  5.01284254E-01
  0.00000000E+00  0.00000000E+00 -1.87721528E-01  5.99992738E-01  0.00000000E+00
  0.00000000E+00 -1.20938859E-01  1.70821127E-17  0.00000000E+00  0.00000000E+00
  0.00000000E+00  5.16001040E-01  0.00000000E+00  0.00000000E+00  0.00000000E+00
  1.00000000E+00  2.09250066E-02  1.98642146E-01  0.00000000E+00  0.00000000E+00
 -3.02495672E-01  1.55836682E-01  0.00000000E+00  0.00000000E+00 -1.65092491E-01
  2.09250066E-02  1.98642146E-01  0.00000000E+00  0.00000000E+00  3.02495672E-01
  1.55836682E-01  0.00000000E+00  0.00000000E+00  1.65092491E-01  1.00000000E+00
  0.00000000E+00  0.00000000E+00  1.67901357E-01  0.00000000E+00  0.00000000E+00
  0.00000000E+00  9.29489047E-02  0.00000000E+00  0.00000000E+00  0.00000000E+00
  0.00000000E+00  1.67901357E-01  0.00000000E+00  0.00000000E+00  0.00000000E+00
  9.29489047E-02  0.00000000E+00  0.00000000E+00  0.00000000E+00  1.00000000E+00
  0.00000000E+00  0.00000000E+00  0.00000000E+00  1.67901357E-01  0.00000000E+00
  0.00000000E+00  0.00000000E+00  9.29489047E-02  0.00000000E+00  0.00000000E+00
  0.00000000E+00  0.00000000E+00  1.67901357E-01  0.00000000E+00  0.00000000E+00
  0.00000000E+00  9.29489047E-02  0.00000000E+00  0.00000000E+00  0.00000000E+00
  1.00000000E+00  8.16990001E-02  1.92867683E-01  0.00000000E+00  0.00000000E+00
 -2.24344072E-01  5.13937470E-02  0.00000000E+00  0.00000000E+00  3.89347805E-02
 -8.16990001E-02 -1.92867683E-01  0.00000000E+00  0.00000000E+00 -2.24344072E-01
 -5.13937470E-02  0.00000000E+00  0.00000000E+00  3.89347805E-02  0.00000000E+00
  0.00000000E+00  0.00000000E+00  1.00000000E+00  4.20490191E-03  9.33278907E-02
  0.00000000E+00  0.00000000E+00 -2.12878998E-02  3.93813213E-01  0.00000000E+00
  0.00000000E+00 -1.73197113E-01  4.20490191E-03  9.33278907E-02  0.00000000E+00
  0.00000000E+00  2.12878998E-02  3.93813213E-01  0.00000000E+00  0.00000000E+00
  1.73197113E-01  5.10898328E-03  0.00000000E+00  0.00000000E+00  0.00000000E+00
  1.00000000E+00  4.20490191E-03  9.33278907E-02  0.00000000E+00  0.00000000E+00
 -2.12878998E-02  3.93813213E-01  0.00000000E+00  0.00000000E+00 -1.73197113E-01
  4.20490191E-03  9.33278907E-02  0.00000000E+00  0.00000000E+00  2.12878998E-02
  3.93813213E-01  0.00000000E+00  0.00000000E+00  1.73197113E-01  5.10898328E-03
  0.00000000E+00  0.00000000E+00  0.00000000E+00  3.33333333E-01  1.00000000E+00
  6.07712905E-02  2.66620876E-01  0.00000000E+00  0.00000000E+00  2.04470697E-01
  5.38845924E-01  0.00000000E+00  0.00000000E+00  2.87620229E-01  6.07712905E-02
  2.66620876E-01  0.00000000E+00  0.00000000E+00 -2.04470697E-01  5.38845924E-01
  0.00000000E+00  0.00000000E+00 -2.87620229E-01  5.10898328E-03  0.00000000E+00
  0.00000000E+00  0.00000000E+00  3.33333333E-01  3.33333333E-01  1.00000000E+00
  0.00000000E+00  0.00000000E+00  0.00000000E+00  0.00000000E+00  0.00000000E+00
  0.00000000E+00  0.00000000E+00  0.00000000E+00  0.00000000E+00  0.00000000E+00
  0.00000000E+00  0.00000000E+00  0.00000000E+00  0.00000000E+00  0.00000000E+00
  0.00000000E+00  0.00000000E+00  0.00000000E+00  0.00000000E+00  0.00000000E+00
  0.00000000E+00  0.00000000E+00  0.00000000E+00  0.00000000E+00  0.00000000E+00
  1.00000000E+00  0.00000000E+00  0.00000000E+00  2.36930643E-01  0.00000000E+00
  0.00000000E+00  0.00000000E+00  4.54318672E-01  0.00000000E+00  0.00000000E+00
  0.00000000E+00  0.00000000E+00 -2.36930643E-01  0.00000000E+00  0.00000000E+00
  0.00000000E+00 -4.54318672E-01  0.00000000E+00  0.00000000E+00  0.00000000E+00
  0.00000000E+00  0.00000000E+00  0.00000000E+00  0.00000000E+00  0.00000000E+00
  0.00000000E+00  0.00000000E+00  1.00000000E+00  0.00000000E+00  0.00000000E+00
  0.00000000E+00  2.36930643E-01  0.00000000E+00  0.00000000E+00  0.00000000E+00
  4.54318672E-01  0.00000000E+00  0.00000000E+00  0.00000000E+00  0.00000000E+00
 -2.36930643E-01  0.00000000E+00  0.00000000E+00  0.00000000E+00 -4.54318672E-01
  0.00000000E+00  0.00000000E+00  0.00000000E+00  0.00000000E+00  0.00000000E+00
  0.00000000E+00  0.00000000E+00  0.00000000E+00  0.00000000E+00  0.00000000E+00
  1.00000000E+00  0.00000000E+00  0.00000000E+00  1.55152172E-01  0.00000000E+00
  0.00000000E+00  0.00000000E+00  7.12729678E-01  0.00000000E+00  0.00000000E+00
  0.00000000E+00  0.00000000E+00  1.55152172E-01  0.00000000E+00  0.00000000E+00
  0.00000000E+00  7.12729678E-01  0.00000000E+00  0.00000000E+00  0.00000000E+00
  1.47007686E-02  0.00000000E+00  0.00000000E+00  0.00000000E+00  0.00000000E+00
  0.00000000E+00  0.00000000E+00  0.00000000E+00  0.00000000E+00  1.00000000E+00
  0.00000000E+00  0.00000000E+00  0.00000000E+00  1.55152172E-01  0.00000000E+00
  0.00000000E+00  0.00000000E+00  7.12729678E-01  0.00000000E+00  0.00000000E+00
  0.00000000E+00  0.00000000E+00  1.55152172E-01  0.00000000E+00  0.00000000E+00
  0.00000000E+00  7.12729678E-01  0.00000000E+00  0.00000000E+00  0.00000000E+00
  1.47007686E-02  0.00000000E+00  0.00000000E+00  0.00000000E+00  0.00000000E+00
  0.00000000E+00  0.00000000E+00  0.00000000E+00  0.00000000E+00  1.00000000E+00
  8.42775442E-02  3.48036185E-01  0.00000000E+00  0.00000000E+00  3.20312236E-01
  4.30055590E-01  0.00000000E+00  0.00000000E+00  6.45287512E-01 -8.42775442E-02
 -3.48036185E-01  0.00000000E+00  0.00000000E+00  3.20312236E-01 -4.30055590E-01
  0.00000000E+00  0.00000000E+00  6.45287512E-01  0.00000000E+00  0.00000000E+00
  0.00000000E+00  1.47007686E-02  0.00000000E+00  0.00000000E+00  0.00000000E+00
  0.00000000E+00  0.00000000E+00  0.00000000E+00  0.00000000E+00  0.00000000E+00
  1.00000000E+00  0.00000000E+00  0.00000000E+00  1.15643601E-01  0.00000000E+00
  0.00000000E+00  0.00000000E+00  5.31237336E-01  0.00000000E+00  0.00000000E+00
  0.00000000E+00  0.00000000E+00  1.15643601E-01  0.00000000E+00  0.00000000E+00
  0.00000000E+00  5.31237336E-01  0.00000000E+00  0.00000000E+00  0.00000000E+00
  1.09573059E-02  0.00000000E+00  0.00000000E+00  0.00000000E+00  0.00000000E+00
  0.00000000E+00  0.00000000E+00  0.00000000E+00  0.00000000E+00  4.47213595E-01
  0.00000000E+00  0.00000000E+00  1.00000000E+00  0.00000000E+00  0.00000000E+00
  0.00000000E+00  1.15643601E-01  0.00000000E+00  0.00000000E+00  0.00000000E+00
  5.31237336E-01  0.00000000E+00  0.00000000E+00  0.00000000E+00  0.00000000E+00
  1.15643601E-01  0.00000000E+00  0.00000000E+00  0.00000000E+00  5.31237336E-01
  0.00000000E+00  0.00000000E+00  0.00000000E+00  1.09573059E-02  0.00000000E+00
  0.00000000E+00  0.00000000E+00  0.00000000E+00  0.00000000E+00  0.00000000E+00
  0.00000000E+00  0.00000000E+00  4.47213595E-01  0.00000000E+00  0.00000000E+00
  1.00000000E+00  1.14235496E-02  1.73009293E-01  0.00000000E+00  0.00000000E+00
  4.85371923E-02  2.93734255E-01  0.00000000E+00  0.00000000E+00  3.51875708E-01
 -1.14235496E-02 -1.73009293E-01  0.00000000E+00  0.00000000E+00  4.85371923E-02
 -2.93734255E-01  0.00000000E+00  0.00000000E+00  3.51875708E-01  0.00000000E+00
  0.00000000E+00  0.00000000E+00  1.09573059E-02  0.00000000E+00  0.00000000E+00
  0.00000000E+00  0.00000000E+00  0.00000000E+00  0.00000000E+00  0.00000000E+00
  0.00000000E+00  4.47213595E-01  0.00000000E+00  0.00000000E+00  1.00000000E+00
  0.00000000E+00  0.00000000E+00  3.52349803E-01  0.00000000E+00  0.00000000E+00
  0.00000000E+00  6.76701569E-01  0.00000000E+00  0.00000000E+00  0.00000000E+00
  0.00000000E+00  3.52349803E-01  0.00000000E+00  0.00000000E+00  0.00000000E+00
  6.76701569E-01  0.00000000E+00  0.00000000E+00  0.00000000E+00  1.09573059E-02
  0.00000000E+00  0.00000000E+00  0.00000000E+00  0.00000000E+00  0.00000000E+00
  0.00000000E+00  0.00000000E+00  0.00000000E+00  4.47213595E-01  0.00000000E+00
  0.00000000E+00  3.33333333E-01  0.00000000E+00  0.00000000E+00  1.00000000E+00
  0.00000000E+00  0.00000000E+00  0.00000000E+00  3.52349803E-01  0.00000000E+00
  0.00000000E+00  0.00000000E+00  6.76701569E-01  0.00000000E+00  0.00000000E+00
  0.00000000E+00  0.00000000E+00  3.52349803E-01  0.00000000E+00  0.00000000E+00
  0.00000000E+00  6.76701569E-01  0.00000000E+00  0.00000000E+00  0.00000000E+00
  1.09573059E-02  0.00000000E+00  0.00000000E+00  0.00000000E+00  0.00000000E+00
  0.00000000E+00  0.00000000E+00  0.00000000E+00  0.00000000E+00  4.47213595E-01
  0.00000000E+00  0.00000000E+00  3.33333333E-01  0.00000000E+00  0.00000000E+00
  1.00000000E+00  1.14235496E-02  1.73009293E-01  0.00000000E+00  0.00000000E+00
  4.85371923E-02  2.93734255E-01  0.00000000E+00  0.00000000E+00  3.51875708E-01
 -1.14235496E-02 -1.73009293E-01  0.00000000E+00  0.00000000E+00  4.85371923E-02
 -2.93734255E-01  0.00000000E+00  0.00000000E+00  3.51875708E-01  0.00000000E+00
  0.00000000E+00  0.00000000E+00  1.09573059E-02  0.00000000E+00  0.00000000E+00
  0.00000000E+00  0.00000000E+00  0.00000000E+00  0.00000000E+00  0.00000000E+00
  0.00000000E+00  4.47213595E-01  0.00000000E+00  0.00000000E+00  3.33333333E-01
  0.00000000E+00  0.00000000E+00  1.00000000E+00  0.00000000E+00  0.00000000E+00
  0.00000000E+00  0.00000000E+00  0.00000000E+00  0.00000000E+00  0.00000000E+00
  0.00000000E+00  0.00000000E+00  0.00000000E+00  0.00000000E+00  0.00000000E+00
  0.00000000E+00  0.00000000E+00  0.00000000E+00  0.00000000E+00  0.00000000E+00
  0.00000000E+00  0.00000000E+00  0.00000000E+00  0.00000000E+00  0.00000000E+00
  0.00000000E+00  0.00000000E+00  0.00000000E+00  0.00000000E+00  0.00000000E+00
  0.00000000E+00  0.00000000E+00  0.00000000E+00  0.00000000E+00  0.00000000E+00
  0.00000000E+00  0.00000000E+00  0.00000000E+00  0.00000000E+00  0.00000000E+00
  1.00000000E+00  1.34092833E-01  2.34336643E-01  0.00000000E+00  0.00000000E+00
 -3.65542192E-01  1.80359441E-01  0.00000000E+00  0.00000000E+00 -1.67562814E-01
  1.34092833E-01  2.34336643E-01  0.00000000E+00  0.00000000E+00  3.65542192E-01
  1.80359441E-01  0.00000000E+00  0.00000000E+00  1.67562814E-01  2.54433794E-01
  0.00000000E+00  0.00000000E+00  0.00000000E+00  4.49280322E-03  4.49280322E-03
  2.24640161E-02  0.00000000E+00  0.00000000E+00  0.00000000E+00  0.00000000E+00
  0.00000000E+00  0.00000000E+00  0.00000000E+00  0.00000000E+00  0.00000000E+00
  0.00000000E+00  0.00000000E+00  0.00000000E+00  0.00000000E+00  1.00000000E+00
  0.00000000E+00  0.00000000E+00  0.00000000E+00  1.44394504E-01  0.00000000E+00
  0.00000000E+00  0.00000000E+00  1.67614822E-02  0.00000000E+00  0.00000000E+00
  0.00000000E+00  0.00000000E+00 -1.44394504E-01  0.00000000E+00  0.00000000E+00
  0.00000000E+00 -1.67614822E-02  0.00000000E+00  0.00000000E+00  0.00000000E+00
  0.00000000E+00  0.00000000E+00  0.00000000E+00  0.00000000E+00  0.00000000E+00
  0.00000000E+00  0.00000000E+00  2.05886108E-02  0.00000000E+00  0.00000000E+00
  0.00000000E+00  0.00000000E+00  0.00000000E+00  0.00000000E+00  0.00000000E+00
  0.00000000E+00  0.00000000E+00  0.00000000E+00  0.00000000E+00  1.00000000E+00
  4.33625338E-02  2.58856997E-01  0.00000000E+00  0.00000000E+00 -3.55367332E-01
  2.01360014E-01  0.00000000E+00  0.00000000E+00 -2.01034878E-01  4.33625338E-02
  2.58856997E-01  0.00000000E+00  0.00000000E+00  3.55367332E-01  2.01360014E-01
  0.00000000E+00  0.00000000E+00  2.01034878E-01  2.89685618E-01  0.00000000E+00
  0.00000000E+00  0.00000000E+00  5.11528148E-03  1.53458445E-02  1.53458445E-02
  0.00000000E+00  0.00000000E+00  0.00000000E+00  0.00000000E+00  0.00000000E+00
  0.00000000E+00  0.00000000E+00  0.00000000E+00  0.00000000E+00  0.00000000E+00
  0.00000000E+00  0.00000000E+00  0.00000000E+00  4.87950036E-01  0.00000000E+00
  1.00000000E+00  0.00000000E+00  0.00000000E+00  0.00000000E+00  1.12508007E-01
  0.00000000E+00  0.00000000E+00  0.00000000E+00  1.66500943E-02  0.00000000E+00
  0.00000000E+00  0.00000000E+00  0.00000000E+00 -1.12508007E-01  0.00000000E+00
  0.00000000E+00  0.00000000E+00 -1.66500943E-02  0.00000000E+00  0.00000000E+00
  0.00000000E+00  0.00000000E+00  0.00000000E+00  0.00000000E+00  0.00000000E+00
  0.00000000E+00  0.00000000E+00  0.00000000E+00  2.05886108E-02  0.00000000E+00
  0.00000000E+00  0.00000000E+00  0.00000000E+00  0.00000000E+00  0.00000000E+00
  0.00000000E+00  0.00000000E+00  0.00000000E+00  0.00000000E+00  0.00000000E+00
  6.00000000E-01  0.00000000E+00  1.00000000E+00  7.63126795E-03  1.91229268E-01
  0.00000000E+00  0.00000000E+00 -2.77780818E-01  1.73376892E-01  0.00000000E+00
  0.00000000E+00 -1.85435595E-01  7.63126795E-03  1.91229268E-01  0.00000000E+00
  0.00000000E+00  2.77780818E-01  1.73376892E-01  0.00000000E+00  0.00000000E+00
  1.85435595E-01  2.54433794E-01  0.00000000E+00  0.00000000E+00  0.00000000E+00
  4.49280322E-03  2.24640161E-02  4.49280322E-03  0.00000000E+00  0.00000000E+00
  0.00000000E+00  0.00000000E+00  0.00000000E+00  0.00000000E+00  0.00000000E+00
  0.00000000E+00  0.00000000E+00  0.00000000E+00  0.00000000E+00  0.00000000E+00
  0.00000000E+00  8.57142857E-02  0.00000000E+00  4.87950036E-01  0.00000000E+00
  1.00000000E+00  0.00000000E+00  0.00000000E+00  1.44394504E-01  0.00000000E+00
  0.00000000E+00  0.00000000E+00  1.67614822E-02  0.00000000E+00  0.00000000E+00
  0.00000000E+00  0.00000000E+00 -1.44394504E-01  0.00000000E+00  0.00000000E+00
  0.00000000E+00 -1.67614822E-02  0.00000000E+00  0.00000000E+00  0.00000000E+00
  0.00000000E+00  0.00000000E+00  0.00000000E+00  0.00000000E+00  0.00000000E+00
  0.00000000E+00  0.00000000E+00  2.05886108E-02  0.00000000E+00  0.00000000E+00
  0.00000000E+00  0.00000000E+00  0.00000000E+00  0.00000000E+00  0.00000000E+00
  0.00000000E+00  0.00000000E+00  0.00000000E+00  0.00000000E+00  0.00000000E+00
  0.00000000E+00  0.00000000E+00  0.00000000E+00  0.00000000E+00  1.00000000E+00
  0.00000000E+00  0.00000000E+00  0.00000000E+00  0.00000000E+00  0.00000000E+00
  0.00000000E+00  0.00000000E+00  0.00000000E+00  0.00000000E+00  0.00000000E+00
  0.00000000E+00  0.00000000E+00  0.00000000E+00  0.00000000E+00  0.00000000E+00
  0.00000000E+00  0.00000000E+00  0.00000000E+00  0.00000000E+00  0.00000000E+00
  0.00000000E+00  0.00000000E+00  0.00000000E+00  0.00000000E+00  0.00000000E+00
  1.53458445E-02  0.00000000E+00  0.00000000E+00  0.00000000E+00  0.00000000E+00
  0.00000000E+00  0.00000000E+00  0.00000000E+00  0.00000000E+00  0.00000000E+00
  0.00000000E+00  0.00000000E+00  0.00000000E+00  0.00000000E+00  0.00000000E+00
  0.00000000E+00  0.00000000E+00  0.00000000E+00  0.00000000E+00  1.00000000E+00
  0.00000000E+00  0.00000000E+00  8.38585174E-02  0.00000000E+00  0.00000000E+00
  0.00000000E+00  1.24102476E-02  0.00000000E+00  0.00000000E+00  0.00000000E+00
  0.00000000E+00 -8.38585174E-02  0.00000000E+00  0.00000000E+00  0.00000000E+00
 -1.24102476E-02  0.00000000E+00  0.00000000E+00  0.00000000E+00  0.00000000E+00
  0.00000000E+00  0.00000000E+00  0.00000000E+00  0.00000000E+00  0.00000000E+00
  0.00000000E+00  1.53458445E-02  0.00000000E+00  0.00000000E+00  0.00000000E+00
  0.00000000E+00  0.00000000E+00  0.00000000E+00  0.00000000E+00  0.00000000E+00
  0.00000000E+00  0.00000000E+00  0.00000000E+00  0.00000000E+00  0.00000000E+00
  0.00000000E+00  0.00000000E+00  0.00000000E+00  4.47213595E-01  0.00000000E+00
  1.00000000E+00  0.00000000E+00  0.00000000E+00  0.00000000E+00  0.00000000E+00
  0.00000000E+00  0.00000000E+00  0.00000000E+00  0.00000000E+00  0.00000000E+00
  0.00000000E+00  0.00000000E+00  0.00000000E+00  0.00000000E+00  0.00000000E+00
  0.00000000E+00  0.00000000E+00  0.00000000E+00  0.00000000E+00  0.00000000E+00
  0.00000000E+00  0.00000000E+00  0.00000000E+00  0.00000000E+00  0.00000000E+00
  0.00000000E+00  2.05886108E-02  0.00000000E+00  0.00000000E+00  0.00000000E+00
  0.00000000E+00  0.00000000E+00  0.00000000E+00  0.00000000E+00  0.00000000E+00
  0.00000000E+00  0.00000000E+00  0.00000000E+00  0.00000000E+00  0.00000000E+00
  0.00000000E+00  0.00000000E+00  0.00000000E+00  0.00000000E+00  0.00000000E+00
  4.47213595E-01  0.00000000E+00  1.00000000E+00  4.33625338E-02  2.58856997E-01
  0.00000000E+00  0.00000000E+00 -3.55367332E-01  2.01360014E-01  0.00000000E+00
  0.00000000E+00 -2.01034878E-01  4.33625338E-02  2.58856997E-01  0.00000000E+00
  0.00000000E+00  3.55367332E-01  2.01360014E-01  0.00000000E+00  0.00000000E+00
  2.01034878E-01  2.89685618E-01  0.00000000E+00  0.00000000E+00  0.00000000E+00
  1.53458445E-02  5.11528148E-03  1.53458445E-02  0.00000000E+00  0.00000000E+00
  0.00000000E+00  0.00000000E+00  0.00000000E+00  0.00000000E+00  0.00000000E+00
  0.00000000E+00  0.00000000E+00  0.00000000E+00  0.00000000E+00  0.00000000E+00
  0.00000000E+00  4.87950036E-01  0.00000000E+00  3.33333333E-01  0.00000000E+00
  9.75900073E-02  0.00000000E+00  0.00000000E+00  0.00000000E+00  0.00000000E+00
  1.00000000E+00  0.00000000E+00  0.00000000E+00  0.00000000E+00  8.38585174E-02
  0.00000000E+00  0.00000000E+00  0.00000000E+00  1.24102476E-02  0.00000000E+00
  0.00000000E+00  0.00000000E+00  0.00000000E+00 -8.38585174E-02  0.00000000E+00
  0.00000000E+00  0.00000000E+00 -1.24102476E-02  0.00000000E+00  0.00000000E+00
  0.00000000E+00  0.00000000E+00  0.00000000E+00  0.00000000E+00  0.00000000E+00
  0.00000000E+00  0.00000000E+00  0.00000000E+00  1.53458445E-02  0.00000000E+00
  0.00000000E+00  0.00000000E+00  0.00000000E+00  0.00000000E+00  0.00000000E+00
  0.00000000E+00  0.00000000E+00  0.00000000E+00  0.00000000E+00  0.00000000E+00
  4.47213595E-01  0.00000000E+00  4.47213595E-01  0.00000000E+00  0.00000000E+00
  0.00000000E+00  0.00000000E+00  0.00000000E+00  0.00000000E+00  1.00000000E+00
  8.68858078E-03  2.17724099E-01  0.00000000E+00  0.00000000E+00 -3.16267373E-01
  1.97398276E-01  0.00000000E+00  0.00000000E+00 -2.11127712E-01  8.68858078E-03
  2.17724099E-01  0.00000000E+00  0.00000000E+00  3.16267373E-01  1.97398276E-01
  0.00000000E+00  0.00000000E+00  2.11127712E-01  2.89685618E-01  0.00000000E+00
  0.00000000E+00  0.00000000E+00  1.53458445E-02  1.53458445E-02  5.11528148E-03
  0.00000000E+00  0.00000000E+00  0.00000000E+00  0.00000000E+00  0.00000000E+00
  0.00000000E+00  0.00000000E+00  0.00000000E+00  0.00000000E+00  0.00000000E+00
  0.00000000E+00  0.00000000E+00  0.00000000E+00  9.75900073E-02  0.00000000E+00
  3.33333333E-01  0.00000000E+00  4.87950036E-01  0.00000000E+00  0.00000000E+00
  0.00000000E+00  0.00000000E+00  3.33333333E-01  0.00000000E+00  1.00000000E+00
  0.00000000E+00  0.00000000E+00  1.12508007E-01  0.00000000E+00  0.00000000E+00
  0.00000000E+00  1.66500943E-02  0.00000000E+00  0.00000000E+00  0.00000000E+00
  0.00000000E+00 -1.12508007E-01  0.00000000E+00  0.00000000E+00  0.00000000E+00
 -1.66500943E-02  0.00000000E+00  0.00000000E+00  0.00000000E+00  0.00000000E+00
  0.00000000E+00  0.00000000E+00  0.00000000E+00  0.00000000E+00  0.00000000E+00
  0.00000000E+00  2.05886108E-02  0.00000000E+00  0.00000000E+00  0.00000000E+00
  0.00000000E+00  0.00000000E+00  0.00000000E+00  0.00000000E+00  0.00000000E+00
  0.00000000E+00  0.00000000E+00  0.00000000E+00  0.00000000E+00  0.00000000E+00
  0.00000000E+00  0.00000000E+00  0.00000000E+00  6.00000000E-01  0.00000000E+00
  4.47213595E-01  0.00000000E+00  0.00000000E+00  0.00000000E+00  0.00000000E+00
  1.00000000E+00  0.00000000E+00  0.00000000E+00  0.00000000E+00  0.00000000E+00
  0.00000000E+00  0.00000000E+00  0.00000000E+00  0.00000000E+00  0.00000000E+00
  0.00000000E+00  0.00000000E+00  0.00000000E+00  0.00000000E+00  0.00000000E+00
  0.00000000E+00  0.00000000E+00  0.00000000E+00  0.00000000E+00  0.00000000E+00
  0.00000000E+00  0.00000000E+00  0.00000000E+00  0.00000000E+00  0.00000000E+00
  0.00000000E+00  2.05886108E-02  0.00000000E+00  0.00000000E+00  0.00000000E+00
  0.00000000E+00  0.00000000E+00  0.00000000E+00  0.00000000E+00  0.00000000E+00
  0.00000000E+00  0.00000000E+00  0.00000000E+00  0.00000000E+00  0.00000000E+00
  0.00000000E+00  0.00000000E+00  0.00000000E+00  0.00000000E+00  0.00000000E+00
  4.47213595E-01  0.00000000E+00  6.00000000E-01  0.00000000E+00  0.00000000E+00
  0.00000000E+00  0.00000000E+00  1.00000000E+00  7.63126795E-03  1.91229268E-01
  0.00000000E+00  0.00000000E+00 -2.77780818E-01  1.73376892E-01  0.00000000E+00
  0.00000000E+00 -1.85435595E-01  7.63126795E-03  1.91229268E-01  0.00000000E+00
  0.00000000E+00  2.77780818E-01  1.73376892E-01  0.00000000E+00  0.00000000E+00
  1.85435595E-01  2.54433794E-01  0.00000000E+00  0.00000000E+00  0.00000000E+00
  2.24640161E-02  4.49280322E-03  4.49280322E-03  0.00000000E+00  0.00000000E+00
  0.00000000E+00  0.00000000E+00  0.00000000E+00  0.00000000E+00  0.00000000E+00
  0.00000000E+00  0.00000000E+00  0.00000000E+00  0.00000000E+00  0.00000000E+00
  0.00000000E+00  8.57142857E-02  0.00000000E+00  9.75900073E-02  0.00000000E+00
  8.57142857E-02  0.00000000E+00  0.00000000E+00  0.00000000E+00  0.00000000E+00
  4.87950036E-01  0.00000000E+00  4.87950036E-01  0.00000000E+00  0.00000000E+00
  1.00000000E+00
Core Hamiltonian Matrix                    R   N=        1431
 -2.78156075E+01 -6.35631987E+00 -1.01273267E+01  0.00000000E+00  0.00000000E+00
 -9.01445672E+00  0.00000000E+00  0.00000000E+00  0.00000000E+00 -9.01445672E+00
  1.46925049E-01  8.09512157E-01  0.00000000E+00  0.00000000E+00 -9.43230362E+00
 -5.64759175E+00 -8.03129932E+00  0.00000000E+00  0.00000000E+00  7.81311538E-01
 -8.79744965E+00  0.00000000E+00  0.00000000E+00 -4.44905252E+00  0.00000000E+00
  0.00000000E+00  0.00000000E+00 -5.96797111E+00  0.00000000E+00  0.00000000E+00
  0.00000000E+00 -4.44905252E+00  0.00000000E+00  0.00000000E+00  0.00000000E+00
 -5.96797111E+00  2.66444745E-02  5.03144741E-01  0.00000000E+00  0.00000000E+00
 -4.84056221E+00  1.24907647E+00  0.00000000E+00  0.00000000E+00 -7.14711561E+00
 -4.46389206E-04 -2.59710782E-01  0.00000000E+00  0.00000000E+00  6.68591588E-01
 -1.76408923E+00  0.00000000E+00  0.00000000E+00  3.71902206E+00 -2.78156075E+01
 -2.59710782E-01 -1.51238875E+00  0.00000000E+00  0.00000000E+00  2.33328352E+00
 -3.33131020E+00  0.00000000E+00  0.00000000E+00  5.50511638E+00 -6.35631987E+00
 -1.01273267E+01  0.00000000E+00  0.00000000E+00 -7.33924363E-01  0.00000000E+00
  0.00000000E+00  0.00000000E+00 -1.78130782E+00  0.00000000E+00  0.00000000E+00
  0.00000000E+00  0.00000000E+00 -9.01445672E+00  0.00000000E+00  0.00000000E+00
  0.00000000E+00 -7.33924363E-01  0.00000000E+00  0.00000000E+00  0.00000000E+00
 -1.78130782E+00  0.00000000E+00  0.00000000E+00  0.00000000E+00  0.00000000E+00
 -9.01445672E+00 -6.68591588E-01 -2.33328352E+00  0.00000000E+00  0.00000000E+00
  3.12738285E+00 -2.49896281E+00  0.00000000E+00  0.00000000E+00  2.21142157E+00
 -1.46925049E-01 -8.09512157E-01  0.00000000E+00  0.00000000E+00 -9.43230362E+00
 -1.76408923E+00 -3.33131020E+00  0.00000000E+00  0.00000000E+00  2.49896281E+00
 -5.20915662E+00  0.00000000E+00  0.00000000E+00  5.59062198E+00 -5.64759175E+00
 -8.03129932E+00  0.00000000E+00  0.00000000E+00 -7.81311538E-01 -8.79744965E+00
  0.00000000E+00  0.00000000E+00 -1.78130782E+00  0.00000000E+00  0.00000000E+00
  0.00000000E+00 -3.54610395E+00  0.00000000E+00  0.00000000E+00  0.00000000E+00
  0.00000000E+00 -4.44905252E+00  0.00000000E+00  0.00000000E+00  0.00000000E+00
 -5.96797111E+00  0.00000000E+00  0.00000000E+00  0.00000000E+00 -1.78130782E+00
  0.00000000E+00  0.00000000E+00  0.00000000E+00 -3.54610395E+00  0.00000000E+00
  0.00000000E+00  0.00000000E+00  0.00000000E+00 -4.44905252E+00  0.00000000E+00
  0.00000000E+00  0.00000000E+00 -5.96797111E+00 -3.71902206E+00 -5.50511638E+00
  0.00000000E+00  0.00000000E+00  2.21142157E+00 -5.59062198E+00  0.00000000E+00
  0.00000000E+00  1.42002947E+00 -2.66444745E-02 -5.03144741E-01  0.00000000E+00
  0.00000000E+00 -4.84056221E+00 -1.24907647E+00  0.00000000E+00  0.00000000E+00