/home/gayverjr/qchem_james/qc53/exe/qcprog.exe .IP2.10925.qcin.1 /home/gayverjr/OpenCAP/qchem_tests/scratch/qchem10925/

                  Welcome to Q-Chem
     A Quantum Leap Into The Future Of Chemistry


 Q-Chem 5.3 (devel), Q-Chem, Inc., Pleasanton, CA (2020)

 Yihan Shao,  Zhengting Gan,  E. Epifanovsky,  A. T. B. Gilbert,  M. Wormit,  
 J. Kussmann,  A. W. Lange,  A. Behn,  Jia Deng,  Xintian Feng,  D. Ghosh,  
 M. Goldey,  P. R. Horn,  L. D. Jacobson,  I. Kaliman,  T. Kus,  A. Landau,  
 Jie Liu,  E. I. Proynov,  R. M. Richard,  R. P. Steele,  E. J. Sundstrom,  
 H. L. Woodcock III,  P. M. Zimmerman,  D. Zuev,  B. Alam,  B. Albrecht,  
 A. Aldossary,  E. Alguire,  S. A. Baeppler,  D. Barton,  Z. Benda,  
 Y. A. Bernard,  E. J. Berquist,  K. B. Bravaya,  H. Burton,  K. Carter-Fenk,  
 D. Casanova,  Chun-Min Chang,  Yunqing Chen,  A. Chien,  K. D. Closser,  
 M. P. Coons,  S. Coriani,  S. Dasgupta,  A. L. Dempwolff,  M. Diedenhofen,  
 Hainam Do,  R. G. Edgar,  Po-Tung Fang,  S. Faraji,  S. Fatehi,  
 Qingguo Feng,  J. Fosso-Tande,  J. Gayvert,  Qinghui Ge,  A. Ghysels,  
 G. Gidofalvi,  J. Gomes,  J. Gonthier,  S. Gulania,  A. Gunina,  D. Hait,  
 M. W. D. Hanson-Heine,  S. Hammes-Schiffer,  P. H. P. Harbach,  
 A. W. Hauser,  M. F. Herbst,  J. E. Herr,  E. G. Hohenstein,  Z. C. Holden,  
 S. Houck,  Kerwin Hui,  B. C. Huynh,  M. Ivanov,  T.-C. Jagau,  Hyunjun Ji,  
 B. Kaduk,  K. Khistyaev,  Jaehoon Kim,  P. Klunzinger,  K. Koh,  
 D. Kosenkov,  L. Koulias,  T. Kowalczyk,  C. M. Krauter,  A. Kunitsa,  
 Ka Un Lao,  A. Laurent,  K. V. Lawler,  Joonho Lee,  D. Lefrancois,  
 S. Lehtola,  D. S. Levine,  Yi-Pei Li,  You-Sheng Lin,  Fenglai Liu,  
 Kuan-Yu Liu,  E. Livshits,  M. Loipersberger,  A. Luenser,  P. Manohar,  
 E. Mansoor,  S. F. Manzer,  Shan-Ping Mao,  Yuezhi Mao,  N. Mardirossian,  
 A. V. Marenich,  T. Markovich,  L. A. Martinez-Martinez,  S. A. Maurer,  
 N. J. Mayhall,  S. C. McKenzie,  J.-M. Mewes,  P. Morgante,  A. F. Morrison,  
 J. W. Mullinax,  K. Nanda,  T. S. Nguyen-Beck,  R. Olivares-Amaya,  
 K. J. Oosterbaan,  J. A. Parkhill,  S. K. Paul,  F. Pavosevic,  Zheng Pei,  
 T. M. Perrine,  F. Plasser,  P. Pokhilko,  S. Prager,  A. Prociuk,  
 E. Ramos,  B. Rana,  D. R. Rehn,  F. Rob,  E. Rossomme,  M. Scheurer,  
 M. Schneider,  N. Sergueev,  S. M. Sharada,  S. Sharma,  W. Skomorowski,  
 D. W. Small,  T. Stauch,  C. J. Stein,  T. Stein,  Yu-Chuan Su,  
 S. P. Veccham,  Zhen Tao,  A. J. W. Thom,  A. Tkatchenko,  T. Tsuchimochi,  
 N. M. Tubman,  L. Vogt,  M. L. Vidal,  O. Vydrov,  M. A. Watson,  J. Wenzel,  
 M. de Wergifosse,  T. A. Wesolowski,  A. White,  J. Witte,  A. Yamada,  
 Jun Yang,  K. Yao,  S. Yeganeh,  S. R. Yost,  Zhi-Qiang You,  A. Zech,  
 Igor Ying Zhang,  Xing Zhang,  Yan Zhao,  Ying Zhu,  B. R. Brooks,  
 G. K. L. Chan,  C. J. Cramer,  M. S. Gordon,  W. J. Hehre,  A. Klamt,  
 M. W. Schmidt,  C. D. Sherrill,  D. G. Truhlar,  A. Aspuru-Guzik,  R. Baer,  
 A. T. Bell,  N. A. Besley,  Jeng-Da Chai,  A. E. DePrince, III,  
 R. A. DiStasio Jr.,  A. Dreuw,  B. D. Dunietz,  T. R. Furlani,  
 Chao-Ping Hsu,  Yousung Jung,  Jing Kong,  D. S. Lambrecht,  WanZhen Liang,  
 C. Ochsenfeld,  V. A. Rassolov,  L. V. Slipchenko,  J. E. Subotnik,  
 T. Van Voorhis,  J. M. Herbert,  A. I. Krylov,  P. M. W. Gill,  M. Head-Gordon

 Contributors to earlier versions of Q-Chem not listed above: 
 R. D. Adamson,  B. Austin,  J. Baker,  G. J. O. Beran,  K. Brandhorst,  
 S. T. Brown,  E. F. C. Byrd,  A. K. Chakraborty,  C.-L. Cheng,  
 Siu Hung Chien,  D. M. Chipman,  D. L. Crittenden,  H. Dachsel,  
 R. J. Doerksen,  A. D. Dutoi,  L. Fusti-Molnar,  W. A. Goddard III,  
 A. Golubeva-Zadorozhnaya,  S. R. Gwaltney,  G. Hawkins,  A. Heyden,  
 S. Hirata,  G. Kedziora,  F. J. Keil,  C. Kelley,  Jihan Kim,  R. A. King,  
 R. Z. Khaliullin,  P. P. Korambath,  W. Kurlancheek,  A. M. Lee,  M. S. Lee,  
 S. V. Levchenko,  Ching Yeh Lin,  D. Liotard,  R. C. Lochan,  I. Lotan,  
 P. E. Maslen,  N. Nair,  D. P. O'Neill,  D. Neuhauser,  E. Neuscamman,  
 C. M. Oana,  R. Olson,  B. Peters,  R. Peverati,  P. A. Pieniazek,  
 Y. M. Rhee,  J. Ritchie,  M. A. Rohrdanz,  E. Rosta,  N. J. Russ,  
 H. F. Schaefer III,  N. E. Schultz,  N. Shenvi,  A. C. Simmonett,  A. Sodt,  
 D. Stuck,  K. S. Thanthiriwatte,  V. Vanovschi,  Tao Wang,  A. Warshel,  
 C. F. Williams,  Q. Wu,  X. Xu,  W. Zhang

 Please cite Q-Chem as follows:
 Y. Shao et al., Mol. Phys. 113, 184-215 (2015)
 DOI: 10.1080/00268976.2014.952696

 Q-Chem 5.3.0 for Intel X86 EM64T Linux

 Parts of Q-Chem use Armadillo 9.800.1 (Horizon Scraper).
 http://arma.sourceforge.net/

 Q-Chem begins on Tue Jul 21 19:31:44 2020  

Host: dirac.bu.edu
0

     Scratch files written to /home/gayverjr/OpenCAP/qchem_tests/scratch/qchem10925//
Processing $rem in /home/gayverjr/qchem_james/qc53/config/preferences:
Processing $rem in /home/gayverjr/.qchemrc:
Core orbitals will be frozen

Checking the input file for inconsistencies... 	...done.

--------------------------------------------------------------
User input:
--------------------------------------------------------------
$molecule
0	1
N        0.0     0.0     1.039
N        0.0     0.0     -1.039
$end

$rem
JOBTYPE	 sp
INPUT_BOHR 1
METHOD	 eom-ccsd
BASIS	 aug-cc-pvdz
GUI	 2 
IP_STATES	[0,0,10,0,0,0,0,0]
CC_TRANS_PROP 2
STATE_ANALYSIS 1
$end

--------------------------------------------------------------
 ----------------------------------------------------------------
             Standard Nuclear Orientation (Bohr)
    I     Atom           X                Y                Z
 ----------------------------------------------------------------
    1      N       0.0000000000     0.0000000000     1.0390000000
    2      N       0.0000000000     0.0000000000    -1.0390000000
 ----------------------------------------------------------------
 Molecular Point Group                 D2h   NOp =  8
 Largest Abelian Subgroup              D2h   NOp =  8
 Nuclear Repulsion Energy =          23.58036574 hartrees
 There are        7 alpha and        7 beta electrons
 Requested basis set is aug-cc-pVDZ
 There are 18 shells and 46 basis functions
 Total memory of 2000 MB is distributed as follows: 
   MEM_STATIC is set to 192 MB
   QALLOC/CCMAN JOB total memory use is  1808 MB
 Warning: actual memory use might exceed 2000 MB

 Total QAlloc Memory Limit   2000 MB
 Mega-Array Size       188 MB
 MEM_STATIC part       192 MB

                       Distance Matrix (Bohrs)
             N (  1)
   N (  2)  2.078000

 A cutoff of  1.0D-14 yielded    171 shell pairs
 There are      1139 function pairs (      1353 Cartesian)
 Smallest overlap matrix eigenvalue = 1.73E-04

 Scale SEOQF with 1.000000e-01/1.000000e-01/1.000000e-01

 Standard Electronic Orientation quadrupole field applied
 Nucleus-field energy     =    -0.0000000005 hartrees
 Guess from superposition of atomic densities
 Warning:  Energy on first SCF cycle will be non-variational
 SAD guess density has 14.000000 electrons

 -----------------------------------------------------------------------
  General SCF calculation program by
  Eric Jon Sundstrom, Paul Horn, Yuezhi Mao, Dmitri Zuev, Alec White,
  David Stuck, Shaama M.S., Shane Yost, Joonho Lee, David Small,
  Daniel Levine, Susi Lehtola, Hugh Burton, Evgeny Epifanovsky,
  Bang C. Huynh
 -----------------------------------------------------------------------
 Hartree-Fock
 A restricted SCF calculation will be
 performed using DIIS
 SCF converges when DIIS error is below 1.0e-08
 ---------------------------------------
  Cycle       Energy         DIIS error
 ---------------------------------------
    1    -109.0562818092      1.01e-01  
    2    -108.9459439719      7.06e-03  
    3    -108.9594286124      1.84e-03  
    4    -108.9603155646      4.22e-04  
    5    -108.9603868837      3.59e-05  
    6    -108.9603873522      5.30e-06  
    7    -108.9603873674      9.46e-07  
    8    -108.9603873680      9.04e-08  
    9    -108.9603873681      4.65e-09  Convergence criterion met
 ---------------------------------------
 SCF time:   CPU 0.96s  wall 1.00s 
 SCF   energy in the final basis set =     -108.9603873681
 Total energy in the final basis set =     -108.9603873681


 ------------------------------------------------------------------------------

   CCMAN2: suite of methods based on coupled cluster
           and equation of motion theories.

   Components:
   * libvmm-1.3-trunk
     by Evgeny Epifanovsky, Ilya Kaliman.
   * libtensor-2.5-trunk
     by Evgeny Epifanovsky, Michael Wormit, Dmitry Zuev, Sam Manzer, 
        Ilya Kaliman.
   * libcc-2.5-trunk
     by Evgeny Epifanovsky, Arik Landau, Tomasz Kus, Kirill Khistyaev, 
        Dmitry Zuev, Prashant Manohar, Xintian Feng, Anna Krylov, 
        Matthew Goldey, Alec White, Thomas Jagau, Kaushik Nanda, 
        Anastasia Gunina, Alexander Kunitsa, Joonho Lee.

   CCMAN original authors:
   Anna I. Krylov, C. David Sherrill, Steven R. Gwaltney,
   Edward F. C. Byrd (2000)
   Sergey V. Levchenko, Lyudmila V. Slipchenko, Tao Wang,
   Ana-Maria C. Cristian (2003)
   Piotr A. Pieniazek, C. Melania Oana, Evgeny Epifanovsky (2007)
   Prashant Manohar (2009)

 ------------------------------------------------------------------------------


 Allocating and initializing 1808MB of RAM...
 Calculation will run on 1 core.


 Alpha MOs, Restricted
 -- Occupied --                  
-15.699 -15.696  -1.478  -0.782  -0.634  -0.615  -0.615
  1 Ag    1 B1u   2 Ag    2 B1u   3 Ag    1 B3u   1 B2u                        
 -- Virtual --                   
  0.104   0.124   0.124   0.140   0.150   0.150   0.196   0.253
  3 B1u   1 B2g   1 B3g   4 Ag    2 B3u   2 B2u   5 Ag    2 B2g                
  0.253   0.325   0.586   0.586   0.691   0.713   0.801   0.801
  2 B3g   4 B1u   6 Ag    1 B1g   7 Ag    5 B1u   3 B3u   3 B2u                
  0.866   0.866   0.947   0.981   0.981   1.084   1.084   1.136
  6 B1u   1 Au    7 B1u   3 B2g   3 B3g   4 B3u   4 B2u   8 Ag                 
  1.330   1.384   1.384   1.901   2.223   2.223   2.245   2.245
  8 B1u   4 B2g   4 B3g   9 Ag    5 B3u   5 B2u   2 B1g  10 Ag                 
  2.651   2.651   2.955   2.997   3.132   3.132   3.334
  9 B1u   2 Au   11 Ag   10 B1u   5 B2g   5 B3g  11 B1u                        

 Beta MOs, Restricted
 -- Occupied --                  
-15.699 -15.696  -1.478  -0.782  -0.634  -0.615  -0.615
  1 Ag    1 B1u   2 Ag    2 B1u   3 Ag    1 B3u   1 B2u                        
 -- Virtual --                   
  0.104   0.124   0.124   0.140   0.150   0.150   0.196   0.253
  3 B1u   1 B2g   1 B3g   4 Ag    2 B3u   2 B2u   5 Ag    2 B2g                
  0.253   0.325   0.586   0.586   0.691   0.713   0.801   0.801
  2 B3g   4 B1u   6 Ag    1 B1g   7 Ag    5 B1u   3 B3u   3 B2u                
  0.866   0.866   0.947   0.981   0.981   1.084   1.084   1.136
  6 B1u   1 Au    7 B1u   3 B2g   3 B3g   4 B3u   4 B2u   8 Ag                 
  1.330   1.384   1.384   1.901   2.223   2.223   2.245   2.245
  8 B1u   4 B2g   4 B3g   9 Ag    5 B3u   5 B2u   2 B1g  10 Ag                 
  2.651   2.651   2.955   2.997   3.132   3.132   3.334
  9 B1u   2 Au   11 Ag   10 B1u   5 B2g   5 B3g  11 B1u                        

 Occupation and symmetry of molecular orbitals

 Point group: D2h (8 irreducible representations).

                           Ag   B1g  B2g  B3g  Au   B1u  B2u  B3u   All 
 ------------------------------------------------------------------------
 All molecular orbitals:
  - Alpha                  11   2    5    5    2    11   5    5     46  
  - Beta                   11   2    5    5    2    11   5    5     46  
 ------------------------------------------------------------------------
 Alpha orbitals:
  - Frozen occupied        1    0    0    0    0    1    0    0     2   
  - Active occupied        2    0    0    0    0    1    1    1     5   
  - Active virtual         8    2    5    5    2    9    4    4     39  
  - Frozen virtual         0    0    0    0    0    0    0    0     0   
 ------------------------------------------------------------------------
 Beta orbitals:
  - Frozen occupied        1    0    0    0    0    1    0    0     2   
  - Active occupied        2    0    0    0    0    1    1    1     5   
  - Active virtual         8    2    5    5    2    9    4    4     39  
  - Frozen virtual         0    0    0    0    0    0    0    0     0   
 ------------------------------------------------------------------------

 Import integrals:   CPU 0.00 s  wall 0.00 s

 Import integrals:   CPU 0.30 s  wall 0.30 s

 MP2 amplitudes:   CPU 0.87 s  wall 0.87 s

Running a double precision version
           CCSD T amplitudes will be solved using DIIS.

           Start     Size      MaxIter   EConv     TConv     
           3         7         100       1.00e-06  1.00e-04  
 ------------------------------------------------------------------------------
           Energy (a.u.)   Ediff      Tdiff       Comment
 ------------------------------------------------------------------------------
          -109.27816854                           
     1    -109.26640046   1.18e-02   5.43e-01     
     2    -109.27914732   1.27e-02   8.43e-02     
     3    -109.27894476   2.03e-04   2.85e-02     
     4    -109.28022068   1.28e-03   8.76e-03     Switched to DIIS steps.
     5    -109.28062413   4.03e-04   7.37e-03     
     6    -109.28063348   9.35e-06   1.35e-03     
     7    -109.28063468   1.20e-06   1.74e-04     
     8    -109.28063499   3.11e-07   6.27e-05     
 ------------------------------------------------------------------------------
          -109.28063499                           CCSD T converged.

End of double precision
 SCF energy                 = -108.96038737
 MP2 energy                 = -109.27816854
 CCSD correlation energy    =   -0.32024762
 CCSD total energy          = -109.28063499

 CCSD  T1^2 = 0.0034  T2^2 = 0.1199  Leading amplitudes:

 Amplitude    Orbitals with energies
 -0.0193       1 (B2u) A                 ->    4 (B2u) A                  
              -0.6146                          1.0843                     
 -0.0193       1 (B2u) B                 ->    4 (B2u) B                  
              -0.6146                          1.0843                     
 -0.0193       1 (B3u) A                 ->    4 (B3u) A                  
              -0.6146                          1.0843                     
 -0.0193       1 (B3u) B                 ->    4 (B3u) B                  
              -0.6146                          1.0843                     

 Amplitude    Orbitals with energies
 -0.0569       1 (B3u) A     1 (B3u) B   ->    1 (B2g) A     1 (B2g) B    
              -0.6146       -0.6146            0.1239        0.1239       
  0.0569       1 (B3u) A     1 (B3u) B   ->    1 (B2g) B     1 (B2g) A    
              -0.6146       -0.6146            0.1239        0.1239       
  0.0569       1 (B3u) B     1 (B3u) A   ->    1 (B2g) A     1 (B2g) B    
              -0.6146       -0.6146            0.1239        0.1239       
 -0.0569       1 (B3u) B     1 (B3u) A   ->    1 (B2g) B     1 (B2g) A    
              -0.6146       -0.6146            0.1239        0.1239       
 -0.0569       1 (B2u) A     1 (B2u) B   ->    1 (B3g) A     1 (B3g) B    
              -0.6146       -0.6146            0.1239        0.1239       
  0.0569       1 (B2u) A     1 (B2u) B   ->    1 (B3g) B     1 (B3g) A    
              -0.6146       -0.6146            0.1239        0.1239       
  0.0569       1 (B2u) B     1 (B2u) A   ->    1 (B3g) A     1 (B3g) B    
              -0.6146       -0.6146            0.1239        0.1239       
 -0.0569       1 (B2u) B     1 (B2u) A   ->    1 (B3g) B     1 (B3g) A    
              -0.6146       -0.6146            0.1239        0.1239       

 Computing CCSD intermediates for later calculations in double precision
 Finished.

Running a double precision version
           CCSD Lambda amplitudes will be solved using DIIS.
           Start     Size      MaxIter   EConv     LConv     
           3         7         100       1.00e-06  1.00e-04  
 ------------------------------------------------------------------------------
            Enorm      Ldiff       Comment
 ------------------------------------------------------------------------------
     1     3.05e-02   2.34e-02     
     2     5.44e-03   2.06e-03     
     3     1.77e-03   9.53e-04     
     4     4.53e-04   4.04e-04     Switched to DIIS steps.
     5     1.75e-04   1.07e-04     
     6     3.89e-05   4.75e-05     
     7     1.08e-05   8.36e-06     
     8     2.79e-06   1.62e-06     
     9     6.32e-07   2.66e-07     
 ------------------------------------------------------------------------------
                                   CCSD Lambda converged.

 CCSD calculation:   CPU 9.13 s  wall 9.11 s

        Solving for EOMIP-CCSD B2g transitions.

Warning! Not enough singles to form guess subspace. Doubles guess vectors will be generated.
In case of poor EOM convergence, reduce requested IP_STATES.

Running a double precision version
      EOMIP-CCSD/MP2 right amplitudes will be solved using Davidson.
        Amplitudes will be solved using standard  algorithm.
     Hard-coded thresholds: 
     LinDepThresh=1.00e-15  NormThresh=1.00e-06  ReorthogonThresh=1.00e-02

      Roots     MaxVec    MaxIter   Precond   Conv      Shift    
      10        120       60        1         1.00e-05  0.00e+00  
 ------------------------------------------------------------------------------
      Iter ConvRoots NVecs ResNorm Current eigenvalues (eV)
 ------------------------------------------------------------------------------
      0    0      10    3.63e-02   37.8493   38.4592   44.1733   44.3005   45.4197   51.9395   68.0774   80.8364   90.7198   131.4399   
      1    0      20    1.41e-01   31.4974   32.3337   42.8662   43.3260   44.2654   49.3899   51.1755   53.6162   55.5268   55.5831   
      2    0      30    3.56e-02   28.9054   29.1391   38.3240   41.0701   41.7865   42.8006   44.5328   45.3976   45.7383   46.9413   
      3    0      40    2.78e-02   28.3987   28.6426   30.1183   34.4427   37.0983   40.5310   40.9938   42.1637   42.5414   43.2146   
      4    0      50    6.57e-03   28.1657   28.6221   29.2364   30.3794   32.4142   36.8527   40.8477   41.6317   41.9743   42.2391   
      5    1      60    6.96e-04   28.1375   28.6204*  29.1782   30.2871   31.8318   36.8303   40.6256   40.8265   41.9304   41.9441   
      6    5      69    6.10e-05   28.1366*  28.6202*  29.1762*  30.2848*  31.8164   36.8292*  40.5181   40.8195   41.8973   41.9368   
      7    7      74    1.82e-04   28.1366*  28.6202*  29.1762*  30.2848*  31.8161*  36.8292*  40.5108   40.8186*  41.8557   41.9349   
      8    7      77    2.35e-04   28.1366*  28.6202*  29.1762*  30.2848*  31.8161*  36.8292*  40.5090   40.8185*  41.4978   41.9309   
      9    8      80    2.15e-05   28.1366*  28.6202*  29.1762*  30.2848*  31.8161*  36.8291*  40.5087*  40.8185*  41.4357   41.9294   
      10   10     82    1.56e-06   28.1366*  28.6202*  29.1762*  30.2848*  31.8161*  36.8291*  40.5086*  40.8185*  41.4304*  41.9293*  

     Davidson procedure converged

 EOMIP transition 1/B2g
 Total energy = -108.24663460 a.u.  Excitation energy = 28.1366 eV.
 R1^2 = 0.0000  R2^2 = 1.0000  Res^2 = 3.58e-07
 Conv-d = yes

 Amplitude    Transitions between orbitals
  0.4267       1 (B2u) A     1 (B3u) A   ->    1 (B3g) A    
 -0.4267       1 (B3u) A     1 (B2u) A   ->    1 (B3g) A    
 -0.4267       1 (B2u) A     1 (B3u) B   ->    1 (B3g) B    
  0.4267       1 (B3u) B     1 (B2u) A   ->    1 (B3g) B    
  0.4267       1 (B3u) A     1 (B2u) B   ->    1 (B3g) B    
 -0.4267       1 (B2u) B     1 (B3u) A   ->    1 (B3g) B    
  0.3640       1 (B3u) A     1 (B2u) B   ->    2 (B3g) B    
 -0.3640       1 (B2u) B     1 (B3u) A   ->    2 (B3g) B    
  0.3640       1 (B2u) A     1 (B3u) A   ->    2 (B3g) A    
 -0.3640       1 (B3u) A     1 (B2u) A   ->    2 (B3g) A    
 -0.3639       1 (B2u) A     1 (B3u) B   ->    2 (B3g) B    
  0.3639       1 (B3u) B     1 (B2u) A   ->    2 (B3g) B    
  0.1109       1 (B2u) A     1 (B3u) A   ->    3 (B3g) A    
 -0.1109       1 (B3u) A     1 (B2u) A   ->    3 (B3g) A    
  0.1108       1 (B3u) A     1 (B2u) B   ->    3 (B3g) B    
 -0.1108       1 (B2u) B     1 (B3u) A   ->    3 (B3g) B    
 -0.1108       1 (B2u) A     1 (B3u) B   ->    3 (B3g) B    
  0.1108       1 (B3u) B     1 (B2u) A   ->    3 (B3g) B    

              Summary of significant orbitals:

               Number  Type             Irrep      Energy
               7       Occ  Alpha       1 (B2u)     -0.6146
               6       Occ  Alpha       1 (B3u)     -0.6146
               7       Occ  Beta        1 (B2u)     -0.6146
               6       Occ  Beta        1 (B3u)     -0.6146
               10      Vir  Alpha       1 (B3g)      0.1239
               16      Vir  Alpha       2 (B3g)      0.2525
               28      Vir  Alpha       3 (B3g)      0.9814
               10      Vir  Beta        1 (B3g)      0.1239
               16      Vir  Beta        2 (B3g)      0.2525
               28      Vir  Beta        3 (B3g)      0.9814


 EOMIP transition 2/B2g
 Total energy = -108.22886141 a.u.  Excitation energy = 28.6202 eV.
 R1^2 = 0.0000  R2^2 = 1.0000  Res^2 = 6.22e-07
 Conv-d = yes

 Amplitude    Transitions between orbitals
 -0.6853       3 (Ag) A      3 (Ag) B    ->    1 (B2g) B    
  0.6853       3 (Ag) B      3 (Ag) A    ->    1 (B2g) B    
 -0.5577       3 (Ag) A      3 (Ag) B    ->    2 (B2g) B    
  0.5577       3 (Ag) B      3 (Ag) A    ->    2 (B2g) B    
  0.3247       2 (B1u) A     2 (B1u) B   ->    1 (B2g) B    
 -0.3247       2 (B1u) B     2 (B1u) A   ->    1 (B2g) B    
  0.2594       2 (B1u) A     2 (B1u) B   ->    2 (B2g) B    
 -0.2594       2 (B1u) B     2 (B1u) A   ->    2 (B2g) B    
 -0.1352       3 (Ag) A      3 (Ag) B    ->    3 (B2g) B    
  0.1352       3 (Ag) B      3 (Ag) A    ->    3 (B2g) B    

              Summary of significant orbitals:

               Number  Type             Irrep      Energy
               5       Occ  Alpha       3 (Ag)     -0.6342
               4       Occ  Alpha       2 (B1u)     -0.7818
               5       Occ  Beta        3 (Ag)     -0.6342
               4       Occ  Beta        2 (B1u)     -0.7818
               9       Vir  Beta        1 (B2g)      0.1239
               15      Vir  Beta        2 (B2g)      0.2525
               27      Vir  Beta        3 (B2g)      0.9814


 EOMIP transition 3/B2g
 Total energy = -108.20842994 a.u.  Excitation energy = 29.1762 eV.
 R1^2 = 0.0000  R2^2 = 1.0000  Res^2 = 8.07e-07
 Conv-d = yes

 Amplitude    Transitions between orbitals
  0.4462       1 (B2u) A     1 (B3u) B   ->    1 (B3g) B    
 -0.4462       1 (B3u) B     1 (B2u) A   ->    1 (B3g) B    
  0.4462       1 (B3u) A     1 (B3u) B   ->    1 (B2g) B    
 -0.4462       1 (B3u) B     1 (B3u) A   ->    1 (B2g) B    
  0.3819       1 (B3u) A     1 (B3u) B   ->    2 (B2g) B    
 -0.3819       1 (B3u) B     1 (B3u) A   ->    2 (B2g) B    
  0.3794       1 (B2u) A     1 (B3u) B   ->    2 (B3g) B    
 -0.3794       1 (B3u) B     1 (B2u) A   ->    2 (B3g) B    
  0.3673       1 (B2u) A     1 (B3u) A   ->    1 (B3g) A    
 -0.3673       1 (B3u) A     1 (B2u) A   ->    1 (B3g) A    
  0.3101       1 (B2u) A     1 (B3u) A   ->    2 (B3g) A    
 -0.3101       1 (B3u) A     1 (B2u) A   ->    2 (B3g) A    
  0.1181       1 (B3u) A     1 (B3u) B   ->    3 (B2g) B    
 -0.1181       1 (B3u) B     1 (B3u) A   ->    3 (B2g) B    
  0.1151       1 (B2u) A     1 (B3u) B   ->    3 (B3g) B    
 -0.1151       1 (B3u) B     1 (B2u) A   ->    3 (B3g) B    

              Summary of significant orbitals:

               Number  Type             Irrep      Energy
               7       Occ  Alpha       1 (B2u)     -0.6146
               6       Occ  Alpha       1 (B3u)     -0.6146
               6       Occ  Beta        1 (B3u)     -0.6146
               10      Vir  Alpha       1 (B3g)      0.1239
               16      Vir  Alpha       2 (B3g)      0.2525
               9       Vir  Beta        1 (B2g)      0.1239
               15      Vir  Beta        2 (B2g)      0.2525
               27      Vir  Beta        3 (B2g)      0.9814
               10      Vir  Beta        1 (B3g)      0.1239
               16      Vir  Beta        2 (B3g)      0.2525
               28      Vir  Beta        3 (B3g)      0.9814


 EOMIP transition 4/B2g
 Total energy = -108.16768927 a.u.  Excitation energy = 30.2848 eV.
 R1^2 = 0.0000  R2^2 = 1.0000  Res^2 = 1.21e-06
 Conv-d = yes

 Amplitude    Transitions between orbitals
 -0.3737       1 (B2u) A     1 (B2u) B   ->    1 (B2g) B    
  0.3737       1 (B2u) B     1 (B2u) A   ->    1 (B2g) B    
 -0.3737       1 (B2u) A     1 (B3u) B   ->    1 (B3g) B    
  0.3737       1 (B3u) B     1 (B2u) A   ->    1 (B3g) B    
 -0.3736       1 (B3u) A     1 (B2u) B   ->    1 (B3g) B    
  0.3736       1 (B2u) B     1 (B3u) A   ->    1 (B3g) B    
  0.3736       1 (B3u) A     1 (B3u) B   ->    1 (B2g) B    
 -0.3736       1 (B3u) B     1 (B3u) A   ->    1 (B2g) B    
 -0.3132       1 (B3u) A     1 (B2u) B   ->    2 (B3g) B    
  0.3132       1 (B2u) B     1 (B3u) A   ->    2 (B3g) B    
 -0.3132       1 (B2u) A     1 (B3u) B   ->    2 (B3g) B    
  0.3132       1 (B3u) B     1 (B2u) A   ->    2 (B3g) B    
  0.3132       1 (B3u) A     1 (B3u) B   ->    2 (B2g) B    
 -0.3132       1 (B3u) B     1 (B3u) A   ->    2 (B2g) B    
 -0.3131       1 (B2u) A     1 (B2u) B   ->    2 (B2g) B    
  0.3131       1 (B2u) B     1 (B2u) A   ->    2 (B2g) B    

              Summary of significant orbitals:

               Number  Type             Irrep      Energy
               7       Occ  Alpha       1 (B2u)     -0.6146
               6       Occ  Alpha       1 (B3u)     -0.6146
               7       Occ  Beta        1 (B2u)     -0.6146
               6       Occ  Beta        1 (B3u)     -0.6146
               9       Vir  Beta        1 (B2g)      0.1239
               15      Vir  Beta        2 (B2g)      0.2525
               10      Vir  Beta        1 (B3g)      0.1239
               16      Vir  Beta        2 (B3g)      0.2525


 EOMIP transition 5/B2g
 Total energy = -108.11141497 a.u.  Excitation energy = 31.8161 eV.
 R1^2 = 0.0000  R2^2 = 1.0000  Res^2 = 2.12e-07
 Conv-d = yes

 Amplitude    Transitions between orbitals
 -0.6349       1 (B2u) A     1 (B2u) B   ->    1 (B2g) B    
  0.6349       1 (B2u) B     1 (B2u) A   ->    1 (B2g) B    
 -0.5252       1 (B2u) A     1 (B2u) B   ->    2 (B2g) B    
  0.5252       1 (B2u) B     1 (B2u) A   ->    2 (B2g) B    
 -0.3226       1 (B3u) A     1 (B3u) B   ->    1 (B2g) B    
  0.3226       1 (B3u) B     1 (B3u) A   ->    1 (B2g) B    
 -0.2673       1 (B3u) A     1 (B3u) B   ->    2 (B2g) B    
  0.2673       1 (B3u) B     1 (B3u) A   ->    2 (B2g) B    
  0.1683       1 (B2u) A     1 (B3u) B   ->    1 (B3g) B    
 -0.1683       1 (B3u) B     1 (B2u) A   ->    1 (B3g) B    
 -0.1473       1 (B2u) A     1 (B2u) B   ->    3 (B2g) B    
  0.1473       1 (B2u) B     1 (B2u) A   ->    3 (B2g) B    
  0.1440       1 (B3u) A     1 (B2u) B   ->    1 (B3g) B    
 -0.1440       1 (B2u) B     1 (B3u) A   ->    1 (B3g) B    
  0.1384       1 (B2u) A     1 (B3u) B   ->    2 (B3g) B    
 -0.1384       1 (B3u) B     1 (B2u) A   ->    2 (B3g) B    
  0.1196       1 (B3u) A     1 (B2u) B   ->    2 (B3g) B    
 -0.1196       1 (B2u) B     1 (B3u) A   ->    2 (B3g) B    

              Summary of significant orbitals:

               Number  Type             Irrep      Energy
               7       Occ  Alpha       1 (B2u)     -0.6146
               6       Occ  Alpha       1 (B3u)     -0.6146
               7       Occ  Beta        1 (B2u)     -0.6146
               6       Occ  Beta        1 (B3u)     -0.6146
               9       Vir  Beta        1 (B2g)      0.1239
               15      Vir  Beta        2 (B2g)      0.2525
               27      Vir  Beta        3 (B2g)      0.9814
               10      Vir  Beta        1 (B3g)      0.1239
               16      Vir  Beta        2 (B3g)      0.2525


 EOMIP transition 6/B2g
 Total energy = -107.92718941 a.u.  Excitation energy = 36.8291 eV.
 R1^2 = 0.0000  R2^2 = 1.0000  Res^2 = 7.43e-07
 Conv-d = yes

 Amplitude    Transitions between orbitals
 -0.4917       1 (B2u) A     1 (B3u) A   ->    1 (B3g) A    
  0.4917       1 (B3u) A     1 (B2u) A   ->    1 (B3g) A    
  0.4583       1 (B3u) A     1 (B2u) B   ->    1 (B3g) B    
 -0.4583       1 (B2u) B     1 (B3u) A   ->    1 (B3g) B    
 -0.3399       1 (B2u) A     1 (B3u) A   ->    2 (B3g) A    
  0.3399       1 (B3u) A     1 (B2u) A   ->    2 (B3g) A    
  0.3240       1 (B3u) A     1 (B2u) B   ->    2 (B3g) B    
 -0.3240       1 (B2u) B     1 (B3u) A   ->    2 (B3g) B    
  0.3185       1 (B3u) A     1 (B3u) B   ->    1 (B2g) B    
 -0.3185       1 (B3u) B     1 (B3u) A   ->    1 (B2g) B    
  0.2296       1 (B3u) A     1 (B3u) B   ->    2 (B2g) B    
 -0.2296       1 (B3u) B     1 (B3u) A   ->    2 (B2g) B    
  0.1268       1 (B3u) A     3 (Ag) B    ->    5 (B1u) B    
 -0.1268       3 (Ag) B      1 (B3u) A   ->    5 (B1u) B    
 -0.1258       2 (B1u) A     1 (B3u) A   ->    4 (Ag) A     
  0.1258       1 (B3u) A     2 (B1u) A   ->    4 (Ag) A     
  0.1144       1 (B3u) A     3 (Ag) B    ->    8 (B1u) B    
 -0.1144       3 (Ag) B      1 (B3u) A   ->    8 (B1u) B    
 -0.1137       3 (Ag) A      1 (B3u) A   ->    5 (B1u) A    
  0.1137       1 (B3u) A     3 (Ag) A    ->    5 (B1u) A    
 -0.1120       3 (Ag) A      1 (B3u) A   ->    8 (B1u) A    
  0.1120       1 (B3u) A     3 (Ag) A    ->    8 (B1u) A    
 -0.1064       1 (B2u) A     1 (B2u) B   ->    1 (B2g) B    
  0.1064       1 (B2u) B     1 (B2u) A   ->    1 (B2g) B    
  0.1059       1 (B3u) A     2 (B1u) B   ->    4 (Ag) B     
 -0.1059       2 (B1u) B     1 (B3u) A   ->    4 (Ag) B     

              Summary of significant orbitals:

               Number  Type             Irrep      Energy
               5       Occ  Alpha       3 (Ag)     -0.6342
               4       Occ  Alpha       2 (B1u)     -0.7818
               7       Occ  Alpha       1 (B2u)     -0.6146
               6       Occ  Alpha       1 (B3u)     -0.6146
               5       Occ  Beta        3 (Ag)     -0.6342
               4       Occ  Beta        2 (B1u)     -0.7818
               7       Occ  Beta        1 (B2u)     -0.6146
               6       Occ  Beta        1 (B3u)     -0.6146
               11      Vir  Alpha       4 (Ag)      0.1402
               10      Vir  Alpha       1 (B3g)      0.1239
               16      Vir  Alpha       2 (B3g)      0.2525
               21      Vir  Alpha       5 (B1u)      0.7127
               32      Vir  Alpha       8 (B1u)      1.3296
               11      Vir  Beta        4 (Ag)      0.1402
               9       Vir  Beta        1 (B2g)      0.1239
               15      Vir  Beta        2 (B2g)      0.2525
               10      Vir  Beta        1 (B3g)      0.1239
               16      Vir  Beta        2 (B3g)      0.2525
               21      Vir  Beta        5 (B1u)      0.7127
               32      Vir  Beta        8 (B1u)      1.3296


 EOMIP transition 7/B2g
 Total energy = -107.79197037 a.u.  Excitation energy = 40.5086 eV.
 R1^2 = 0.0000  R2^2 = 1.0000  Res^2 = 5.01e-08
 Conv-d = yes

 Amplitude    Transitions between orbitals
 -0.6468       2 (B1u) A     2 (B1u) B   ->    1 (B2g) B    
  0.6468       2 (B1u) B     2 (B1u) A   ->    1 (B2g) B    
 -0.5011       2 (B1u) A     2 (B1u) B   ->    2 (B2g) B    
  0.5011       2 (B1u) B     2 (B1u) A   ->    2 (B2g) B    
 -0.2889       3 (Ag) A      3 (Ag) B    ->    2 (B2g) B    
  0.2889       3 (Ag) B      3 (Ag) A    ->    2 (B2g) B    
 -0.2600       3 (Ag) A      3 (Ag) B    ->    1 (B2g) B    
  0.2600       3 (Ag) B      3 (Ag) A    ->    1 (B2g) B    
  0.1298       3 (Ag) A      2 (Ag) B    ->    1 (B2g) B    
 -0.1298       2 (Ag) B      3 (Ag) A    ->    1 (B2g) B    
 -0.1148       2 (B1u) A     2 (B1u) B   ->    3 (B2g) B    
  0.1148       2 (B1u) B     2 (B1u) A   ->    3 (B2g) B    
  0.1099       2 (Ag) A      3 (Ag) B    ->    1 (B2g) B    
 -0.1099       3 (Ag) B      2 (Ag) A    ->    1 (B2g) B    
  0.1052       3 (Ag) A      2 (Ag) B    ->    2 (B2g) B    
 -0.1052       2 (Ag) B      3 (Ag) A    ->    2 (B2g) B    
 -0.1000       1 (B3u) A     1 (B3u) B   ->    1 (B2g) B    
  0.1000       1 (B3u) B     1 (B3u) A   ->    1 (B2g) B    

              Summary of significant orbitals:

               Number  Type             Irrep      Energy
               3       Occ  Alpha       2 (Ag)     -1.4779
               5       Occ  Alpha       3 (Ag)     -0.6342
               4       Occ  Alpha       2 (B1u)     -0.7818
               6       Occ  Alpha       1 (B3u)     -0.6146
               3       Occ  Beta        2 (Ag)     -1.4779
               5       Occ  Beta        3 (Ag)     -0.6342
               4       Occ  Beta        2 (B1u)     -0.7818
               6       Occ  Beta        1 (B3u)     -0.6146
               9       Vir  Beta        1 (B2g)      0.1239
               15      Vir  Beta        2 (B2g)      0.2525
               27      Vir  Beta        3 (B2g)      0.9814


 EOMIP transition 8/B2g
 Total energy = -107.78058360 a.u.  Excitation energy = 40.8185 eV.
 R1^2 = 0.0000  R2^2 = 1.0000  Res^2 = 1.26e-06
 Conv-d = yes

 Amplitude    Transitions between orbitals
  0.3740       3 (Ag) A      1 (B3u) B   ->    3 (B1u) B    
 -0.3740       1 (B3u) B     3 (Ag) A    ->    3 (B1u) B    
 -0.3740       3 (Ag) A      1 (B3u) A   ->    3 (B1u) A    
  0.3740       1 (B3u) A     3 (Ag) A    ->    3 (B1u) A    
 -0.3740       1 (B3u) A     3 (Ag) B    ->    3 (B1u) B    
  0.3740       3 (Ag) B      1 (B3u) A   ->    3 (B1u) B    
 -0.2700       3 (Ag) A      1 (B3u) B   ->    4 (B1u) B    
  0.2700       1 (B3u) B     3 (Ag) A    ->    4 (B1u) B    
  0.2700       3 (Ag) A      1 (B3u) A   ->    4 (B1u) A    
 -0.2700       1 (B3u) A     3 (Ag) A    ->    4 (B1u) A    
  0.2700       1 (B3u) A     3 (Ag) B    ->    4 (B1u) B    
 -0.2700       3 (Ag) B      1 (B3u) A   ->    4 (B1u) B    
 -0.2634       2 (B1u) A     1 (B3u) A   ->    4 (Ag) A     
  0.2634       1 (B3u) A     2 (B1u) A   ->    4 (Ag) A     
 -0.2634       1 (B3u) A     2 (B1u) B   ->    4 (Ag) B     
  0.2634       2 (B1u) B     1 (B3u) A   ->    4 (Ag) B     
  0.2633       2 (B1u) A     1 (B3u) B   ->    4 (Ag) B     
 -0.2633       1 (B3u) B     2 (B1u) A   ->    4 (Ag) B     
 -0.1094       3 (Ag) A      1 (B3u) B   ->    7 (B1u) B    
  0.1094       1 (B3u) B     3 (Ag) A    ->    7 (B1u) B    
  0.1093       3 (Ag) A      1 (B3u) A   ->    7 (B1u) A    
 -0.1093       1 (B3u) A     3 (Ag) A    ->    7 (B1u) A    
  0.1092       1 (B3u) A     3 (Ag) B    ->    7 (B1u) B    
 -0.1092       3 (Ag) B      1 (B3u) A   ->    7 (B1u) B    

              Summary of significant orbitals:

               Number  Type             Irrep      Energy
               5       Occ  Alpha       3 (Ag)     -0.6342
               4       Occ  Alpha       2 (B1u)     -0.7818
               6       Occ  Alpha       1 (B3u)     -0.6146
               5       Occ  Beta        3 (Ag)     -0.6342
               4       Occ  Beta        2 (B1u)     -0.7818
               6       Occ  Beta        1 (B3u)     -0.6146
               11      Vir  Alpha       4 (Ag)      0.1402
               8       Vir  Alpha       3 (B1u)      0.1038
               17      Vir  Alpha       4 (B1u)      0.3252
               26      Vir  Alpha       7 (B1u)      0.9473
               11      Vir  Beta        4 (Ag)      0.1402
               8       Vir  Beta        3 (B1u)      0.1038
               17      Vir  Beta        4 (B1u)      0.3252
               26      Vir  Beta        7 (B1u)      0.9473


 EOMIP transition 9/B2g
 Total energy = -107.75809716 a.u.  Excitation energy = 41.4304 eV.
 R1^2 = 0.0000  R2^2 = 1.0000  Res^2 = 9.73e-06
 Conv-d = yes

 Amplitude    Transitions between orbitals
  0.5073       2 (B1u) A     3 (Ag) B    ->    2 (B3u) B    
 -0.5073       3 (Ag) B      2 (B1u) A   ->    2 (B3u) B    
  0.5072       3 (Ag) A      2 (B1u) A   ->    2 (B3u) A    
 -0.5072       2 (B1u) A     3 (Ag) A    ->    2 (B3u) A    
 -0.5067       3 (Ag) A      2 (B1u) B   ->    2 (B3u) B    
  0.5067       2 (B1u) B     3 (Ag) A    ->    2 (B3u) B    
 -0.1451       2 (B1u) A     1 (B3u) A   ->    4 (Ag) A     
  0.1451       1 (B3u) A     2 (B1u) A   ->    4 (Ag) A     
 -0.1442       1 (B3u) A     2 (B1u) B   ->    4 (Ag) B     
  0.1442       2 (B1u) B     1 (B3u) A   ->    4 (Ag) B     
  0.1435       2 (B1u) A     1 (B3u) B   ->    4 (Ag) B     
 -0.1435       1 (B3u) B     2 (B1u) A   ->    4 (Ag) B     
  0.1274       1 (B3u) A     2 (B1u) B   ->    5 (Ag) B     
 -0.1274       2 (B1u) B     1 (B3u) A   ->    5 (Ag) B     
 -0.1272       2 (B1u) A     1 (B3u) B   ->    5 (Ag) B     
  0.1272       1 (B3u) B     2 (B1u) A   ->    5 (Ag) B     
  0.1263       2 (B1u) A     1 (B3u) A   ->    5 (Ag) A     
 -0.1263       1 (B3u) A     2 (B1u) A   ->    5 (Ag) A     
  0.1050       2 (B1u) A     3 (Ag) B    ->    4 (B3u) B    
 -0.1050       3 (Ag) B      2 (B1u) A   ->    4 (B3u) B    
  0.1049       3 (Ag) A      2 (B1u) A   ->    4 (B3u) A    
 -0.1049       2 (B1u) A     3 (Ag) A    ->    4 (B3u) A    
 -0.1040       3 (Ag) A      2 (B1u) B   ->    4 (B3u) B    
  0.1040       2 (B1u) B     3 (Ag) A    ->    4 (B3u) B    

              Summary of significant orbitals:

               Number  Type             Irrep      Energy
               5       Occ  Alpha       3 (Ag)     -0.6342
               4       Occ  Alpha       2 (B1u)     -0.7818
               6       Occ  Alpha       1 (B3u)     -0.6146
               5       Occ  Beta        3 (Ag)     -0.6342
               4       Occ  Beta        2 (B1u)     -0.7818
               6       Occ  Beta        1 (B3u)     -0.6146
               11      Vir  Alpha       4 (Ag)      0.1402
               14      Vir  Alpha       5 (Ag)      0.1962
               12      Vir  Alpha       2 (B3u)      0.1504
               29      Vir  Alpha       4 (B3u)      1.0843
               11      Vir  Beta        4 (Ag)      0.1402
               14      Vir  Beta        5 (Ag)      0.1962
               12      Vir  Beta        2 (B3u)      0.1504
               29      Vir  Beta        4 (B3u)      1.0843


 EOMIP transition 10/B2g
 Total energy = -107.73976123 a.u.  Excitation energy = 41.9293 eV.
 R1^2 = 0.0000  R2^2 = 1.0000  Res^2 = 5.79e-07
 Conv-d = yes

 Amplitude    Transitions between orbitals
 -0.4851       3 (Ag) A      2 (B1u) A   ->    2 (B3u) A    
  0.4851       2 (B1u) A     3 (Ag) A    ->    2 (B3u) A    
 -0.4653       3 (Ag) A      1 (B3u) A   ->    3 (B1u) A    
  0.4653       1 (B3u) A     3 (Ag) A    ->    3 (B1u) A    
 -0.3363       3 (Ag) A      1 (B3u) B   ->    3 (B1u) B    
  0.3363       1 (B3u) B     3 (Ag) A    ->    3 (B1u) B    
  0.2752       3 (Ag) A      1 (B3u) A   ->    4 (B1u) A    
 -0.2752       1 (B3u) A     3 (Ag) A    ->    4 (B1u) A    
  0.2439       2 (B1u) A     3 (Ag) B    ->    2 (B3u) B    
 -0.2439       3 (Ag) B      2 (B1u) A   ->    2 (B3u) B    
 -0.2412       3 (Ag) A      2 (B1u) B   ->    2 (B3u) B    
  0.2412       2 (B1u) B     3 (Ag) A    ->    2 (B3u) B    
  0.2197       3 (Ag) A      1 (B3u) B   ->    4 (B1u) B    
 -0.2197       1 (B3u) B     3 (Ag) A    ->    4 (B1u) B    
 -0.2130       2 (B1u) A     1 (B3u) B   ->    4 (Ag) B     
  0.2130       1 (B3u) B     2 (B1u) A   ->    4 (Ag) B     
 -0.2068       2 (B1u) A     1 (B3u) A   ->    4 (Ag) A     
  0.2068       1 (B3u) A     2 (B1u) A   ->    4 (Ag) A     
  0.1291       1 (B3u) A     3 (Ag) B    ->    3 (B1u) B    
 -0.1291       3 (Ag) B      1 (B3u) A   ->    3 (B1u) B    

              Summary of significant orbitals:

               Number  Type             Irrep      Energy
               5       Occ  Alpha       3 (Ag)     -0.6342
               4       Occ  Alpha       2 (B1u)     -0.7818
               6       Occ  Alpha       1 (B3u)     -0.6146
               5       Occ  Beta        3 (Ag)     -0.6342
               4       Occ  Beta        2 (B1u)     -0.7818
               6       Occ  Beta        1 (B3u)     -0.6146
               11      Vir  Alpha       4 (Ag)      0.1402
               8       Vir  Alpha       3 (B1u)      0.1038
               17      Vir  Alpha       4 (B1u)      0.3252
               12      Vir  Alpha       2 (B3u)      0.1504
               11      Vir  Beta        4 (Ag)      0.1402
               8       Vir  Beta        3 (B1u)      0.1038
               17      Vir  Beta        4 (B1u)      0.3252
               12      Vir  Beta        2 (B3u)      0.1504


Running a double precision version
      EOMIP-CCSD/MP2 left amplitudes will be solved using Davidson.
        Amplitudes will be solved using MOM  algorithm.
     Hard-coded thresholds: 
     LinDepThresh=1.00e-15  NormThresh=1.00e-06  ReorthogonThresh=1.00e-02

      Roots     MaxVec    MaxIter   Precond   Conv      Shift    
      10        120       60        1         1.00e-05  0.00e+00  
 ------------------------------------------------------------------------------
      Iter ConvRoots NVecs ResNorm Current eigenvalues (eV)
 ------------------------------------------------------------------------------
      0    1      10    1.81e-04   28.1366   28.6202   29.1762   30.2848   31.8161   36.8291   40.5086   40.8185*  41.4304   41.9293   
      1    2      19    4.25e-05   28.1366   28.6202   29.1762   30.2848   31.8161   36.8292   40.5086   40.8185*  41.4302*  41.9293   
      2    9      27    3.92e-06   28.1366*  28.6202*  29.1762*  30.2848*  31.8161*  36.8291   40.5086*  40.8185*  41.4302*  41.9293*  
      3    10     28    2.08e-06   28.1366*  28.6202*  29.1761*  30.2848*  31.8161*  36.8291*  40.5086*  40.8185*  41.4302*  41.9293*  

     Davidson procedure converged

 Excited state properties for  EOMIP-CCSD transition 1/B2g
 Dipole moment (a.u.): 0.000000 (X 0.000000, Y 0.000000, Z 0.000000)
 R-squared (a.u.): 36.263349 (XX 6.091989, YY 6.855730, ZZ 23.315630)
 Gauge origin (a.u.): (0.000000, 0.000000, 0.000000)
 Angular momentum (a.u.) against gauge origin: 
 (X 0.000000i, Y 0.000000i, Z 0.000000i)
 Traces of the OPDMs: Tr(AA) 6.000000, Tr(BB) 7.000000

State OPDM analysis using libwa module will be excecuted
 NOs (alpha)
   Occupation of frontier NOs:
      0.3347   0.3374
   Number of electrons:  6.000000
 NOs (beta)
   Occupation of frontier NOs:
      0.6606   0.6674
   Number of electrons:  7.000000
 NOs (spin-traced)
   Occupation of frontier NOs:
      1.0020   1.0061
   Number of electrons: 13.000000
   Number of unpaired electrons: n_u =  3.00000, n_u,nl =  2.99995
   NO participation ratio (PR_NO):  3.034677
 
 Mulliken Population Analysis
 Atom      Charge (e)        Spin (e)
 ------------------------------------
  1 N        0.500000        0.500000
  2 N        0.500000        0.500000
 ------------------------------------
 Sum:        1.000000        1.000000
 
 Multipole moment analysis of the density matrix
   Molecular charge:                      1.000000
   Number of electrons:                   13.000000
     Center of electronic charge [Ang]: [  0.000000,  -0.000000,  -0.000000]
   Total nuclear charge:                  14.000000
     Center of nuclear charge [Ang]:    [  0.000000,   0.000000,   0.000000]
   Dipole moment [D]:                     0.000000
     Cartesian components [D]:          [ -0.000000,   0.000000,   0.000000]
   RMS size of the density [Ang]:         0.883819
     Cartesian components [Ang]:        [  0.362251,   0.384288,   0.708685]
 

 Excited state properties for  EOMIP-CCSD transition 2/B2g
 Dipole moment (a.u.): 0.000000 (X 0.000000, Y 0.000000, Z 0.000000)
 R-squared (a.u.): 33.471181 (XX 7.690053, YY 6.871531, ZZ 18.909597)
 Gauge origin (a.u.): (0.000000, 0.000000, 0.000000)
 Angular momentum (a.u.) against gauge origin: 
 (X 0.000000i, Y 0.000000i, Z 0.000000i)
 Traces of the OPDMs: Tr(AA) 6.000000, Tr(BB) 7.000000

State OPDM analysis using libwa module will be excecuted
 NOs (alpha)
   Occupation of frontier NOs:
      0.1851   0.8156
   Number of electrons:  6.000000
 NOs (beta)
   Occupation of frontier NOs:
      0.1847   0.8203
   Number of electrons:  7.000000
 NOs (spin-traced)
   Occupation of frontier NOs:
      0.9884   1.6358
   Number of electrons: 13.000000
   Number of unpaired electrons: n_u =  1.74038, n_u,nl =  1.71883
   NO participation ratio (PR_NO):  2.429480
 
 Mulliken Population Analysis
 Atom      Charge (e)        Spin (e)
 ------------------------------------
  1 N        0.500000        0.500000
  2 N        0.500000        0.500000
 ------------------------------------
 Sum:        1.000000        1.000000
 
 Multipole moment analysis of the density matrix
   Molecular charge:                      1.000000
   Number of electrons:                   13.000000
     Center of electronic charge [Ang]: [ -0.000000,   0.000000,  -0.000000]
   Total nuclear charge:                  14.000000
     Center of nuclear charge [Ang]:    [  0.000000,   0.000000,   0.000000]
   Dipole moment [D]:                     0.000000
     Cartesian components [D]:          [  0.000000,  -0.000000,   0.000000]
   RMS size of the density [Ang]:         0.849112
     Cartesian components [Ang]:        [  0.407000,   0.384730,   0.638220]
 

 Excited state properties for  EOMIP-CCSD transition 3/B2g
 Dipole moment (a.u.): 0.000000 (X 0.000000, Y 0.000000, Z 0.000000)
 R-squared (a.u.): 36.278774 (XX 6.027556, YY 6.930665, ZZ 23.320554)
 Gauge origin (a.u.): (0.000000, 0.000000, 0.000000)
 Angular momentum (a.u.) against gauge origin: 
 (X 0.000000i, Y 0.000000i, Z 0.000000i)
 Traces of the OPDMs: Tr(AA) 6.000000, Tr(BB) 7.000000

State OPDM analysis using libwa module will be excecuted
 NOs (alpha)
   Occupation of frontier NOs:
      0.3778   0.3817
   Number of electrons:  6.000000
 NOs (beta)
   Occupation of frontier NOs:
      0.3702   0.3719
   Number of electrons:  7.000000
 NOs (spin-traced)
   Occupation of frontier NOs:
      0.6597   1.3555
   Number of electrons: 13.000000
   Number of unpaired electrons: n_u =  2.31949, n_u,nl =  2.64174
   NO participation ratio (PR_NO):  3.920470
 
 Mulliken Population Analysis
 Atom      Charge (e)        Spin (e)
 ------------------------------------
  1 N        0.500000        0.500000
  2 N        0.500000        0.500000
 ------------------------------------
 Sum:        1.000000        1.000000
 
 Multipole moment analysis of the density matrix
   Molecular charge:                      1.000000
   Number of electrons:                   13.000000
     Center of electronic charge [Ang]: [ -0.000000,  -0.000000,  -0.000000]
   Total nuclear charge:                  14.000000
     Center of nuclear charge [Ang]:    [  0.000000,   0.000000,   0.000000]
   Dipole moment [D]:                     0.000000
     Cartesian components [D]:          [  0.000000,   0.000000,   0.000000]
   RMS size of the density [Ang]:         0.884007
     Cartesian components [Ang]:        [  0.360330,   0.386382,   0.708759]
 

 Excited state properties for  EOMIP-CCSD transition 4/B2g
 Dipole moment (a.u.): 0.000000 (X 0.000000, Y 0.000000, Z 0.000000)
 R-squared (a.u.): 36.340525 (XX 6.495322, YY 6.495224, ZZ 23.349979)
 Gauge origin (a.u.): (0.000000, 0.000000, 0.000000)
 Angular momentum (a.u.) against gauge origin: 
 (X 0.000000i, Y 0.000000i, Z 0.000000i)
 Traces of the OPDMs: Tr(AA) 6.000000, Tr(BB) 7.000000

State OPDM analysis using libwa module will be excecuted
 NOs (alpha)
   Occupation of frontier NOs:
      0.5020   0.5020
   Number of electrons:  6.000000
 NOs (beta)
   Occupation of frontier NOs:
      0.4961   0.5010
   Number of electrons:  7.000000
 NOs (spin-traced)
   Occupation of frontier NOs:
      1.0030   1.0030
   Number of electrons: 13.000000
   Number of unpaired electrons: n_u =  3.00000, n_u,nl =  3.11346
   NO participation ratio (PR_NO):  3.628625
 
 Mulliken Population Analysis
 Atom      Charge (e)        Spin (e)
 ------------------------------------
  1 N        0.500000        0.500000
  2 N        0.500000        0.500000
 ------------------------------------
 Sum:        1.000000        1.000000
 
 Multipole moment analysis of the density matrix
   Molecular charge:                      1.000000
   Number of electrons:                   13.000000
     Center of electronic charge [Ang]: [ -0.000000,  -0.000000,  -0.000000]
   Total nuclear charge:                  14.000000
     Center of nuclear charge [Ang]:    [  0.000000,   0.000000,   0.000000]
   Dipole moment [D]:                     0.000000
     Cartesian components [D]:          [  0.000000,   0.000000,   0.000000]
   RMS size of the density [Ang]:         0.884759
     Cartesian components [Ang]:        [  0.374050,   0.374047,   0.709206]
 

 Excited state properties for  EOMIP-CCSD transition 5/B2g
 Dipole moment (a.u.): 0.000000 (X 0.000000, Y 0.000000, Z 0.000000)
 R-squared (a.u.): 36.375630 (XX 7.387838, YY 5.653045, ZZ 23.334747)
 Gauge origin (a.u.): (0.000000, 0.000000, 0.000000)
 Angular momentum (a.u.) against gauge origin: 
 (X 0.000000i, Y 0.000000i, Z 0.000000i)
 Traces of the OPDMs: Tr(AA) 6.000000, Tr(BB) 7.000000

State OPDM analysis using libwa module will be excecuted
 NOs (alpha)
   Occupation of frontier NOs:
      0.2384   0.7797
   Number of electrons:  6.000000
 NOs (beta)
   Occupation of frontier NOs:
      0.2514   0.7697
   Number of electrons:  7.000000
 NOs (spin-traced)
   Occupation of frontier NOs:
      0.9037   1.5494
   Number of electrons: 13.000000
   Number of unpaired electrons: n_u =  1.97950, n_u,nl =  2.04782
   NO participation ratio (PR_NO):  3.089865
 
 Mulliken Population Analysis
 Atom      Charge (e)        Spin (e)
 ------------------------------------
  1 N        0.500000        0.500000
  2 N        0.500000        0.500000
 ------------------------------------
 Sum:        1.000000        1.000000
 
 Multipole moment analysis of the density matrix
   Molecular charge:                      1.000000
   Number of electrons:                   13.000000
     Center of electronic charge [Ang]: [ -0.000000,  -0.000000,  -0.000000]
   Total nuclear charge:                  14.000000
     Center of nuclear charge [Ang]:    [  0.000000,   0.000000,   0.000000]
   Dipole moment [D]:                     0.000000
     Cartesian components [D]:          [  0.000000,   0.000000,   0.000000]
   RMS size of the density [Ang]:         0.885186
     Cartesian components [Ang]:        [  0.398922,   0.348956,   0.708975]
 

 Excited state properties for  EOMIP-CCSD transition 6/B2g
 Dipole moment (a.u.): 0.000000 (X 0.000000, Y 0.000000, Z 0.000000)
 R-squared (a.u.): 37.450146 (XX 6.482657, YY 7.406822, ZZ 23.560667)
 Gauge origin (a.u.): (0.000000, 0.000000, 0.000000)
 Angular momentum (a.u.) against gauge origin: 
 (X 0.000000i, Y 0.000000i, Z 0.000000i)
 Traces of the OPDMs: Tr(AA) 6.000000, Tr(BB) 7.000000

State OPDM analysis using libwa module will be excecuted
 NOs (alpha)
   Occupation of frontier NOs:
      0.3713   0.6078
   Number of electrons:  6.000000
 NOs (beta)
   Occupation of frontier NOs:
      0.3254   0.6571
   Number of electrons:  7.000000
 NOs (spin-traced)
   Occupation of frontier NOs:
      0.8883   1.2649
   Number of electrons: 13.000000
   Number of unpaired electrons: n_u =  2.77667, n_u,nl =  2.84647
   NO participation ratio (PR_NO):  4.126702
 
 Mulliken Population Analysis
 Atom      Charge (e)        Spin (e)
 ------------------------------------
  1 N        0.500000        0.500000
  2 N        0.500000        0.500000
 ------------------------------------
 Sum:        1.000000        1.000000
 
 Multipole moment analysis of the density matrix
   Molecular charge:                      1.000000
   Number of electrons:                   13.000000
     Center of electronic charge [Ang]: [ -0.000000,  -0.000000,  -0.000000]
   Total nuclear charge:                  14.000000
     Center of nuclear charge [Ang]:    [  0.000000,   0.000000,   0.000000]
   Dipole moment [D]:                     0.000000
     Cartesian components [D]:          [  0.000000,   0.000000,   0.000000]
   RMS size of the density [Ang]:         0.898165
     Cartesian components [Ang]:        [  0.373685,   0.399434,   0.712399]
 

 Excited state properties for  EOMIP-CCSD transition 7/B2g
 Dipole moment (a.u.): 0.000000 (X 0.000000, Y 0.000000, Z 0.000000)
 R-squared (a.u.): 34.534737 (XX 7.786119, YY 6.962004, ZZ 19.786613)
 Gauge origin (a.u.): (0.000000, 0.000000, 0.000000)
 Angular momentum (a.u.) against gauge origin: 
 (X 0.000000i, Y 0.000000i, Z 0.000000i)
 Traces of the OPDMs: Tr(AA) 6.000000, Tr(BB) 7.000000

State OPDM analysis using libwa module will be excecuted
 NOs (alpha)
   Occupation of frontier NOs:
      0.2792   0.7739
   Number of electrons:  6.000000
 NOs (beta)
   Occupation of frontier NOs:
      0.2871   0.7830
   Number of electrons:  7.000000
 NOs (spin-traced)
   Occupation of frontier NOs:
      0.9224   1.5577
   Number of electrons: 13.000000
   Number of unpaired electrons: n_u =  2.13257, n_u,nl =  2.14883
   NO participation ratio (PR_NO):  3.309525
 
 Mulliken Population Analysis
 Atom      Charge (e)        Spin (e)
 ------------------------------------
  1 N        0.500000        0.500000
  2 N        0.500000        0.500000
 ------------------------------------
 Sum:        1.000000        1.000000
 
 Multipole moment analysis of the density matrix
   Molecular charge:                      1.000000
   Number of electrons:                   13.000000
     Center of electronic charge [Ang]: [ -0.000000,   0.000000,   0.000000]
   Total nuclear charge:                  14.000000
     Center of nuclear charge [Ang]:    [  0.000000,   0.000000,   0.000000]
   Dipole moment [D]:                     0.000000
     Cartesian components [D]:          [  0.000000,  -0.000000,  -0.000000]
   RMS size of the density [Ang]:         0.862497
     Cartesian components [Ang]:        [  0.409534,   0.387255,   0.652853]
 

 Excited state properties for  EOMIP-CCSD transition 8/B2g
 Dipole moment (a.u.): 0.000000 (X 0.000000, Y 0.000000, Z 0.000000)
 R-squared (a.u.): 52.246953 (XX 9.904245, YY 10.763460, ZZ 31.579247)
 Gauge origin (a.u.): (0.000000, 0.000000, 0.000000)
 Angular momentum (a.u.) against gauge origin: 
 (X 0.000000i, Y 0.000000i, Z 0.000000i)
 Traces of the OPDMs: Tr(AA) 6.000000, Tr(BB) 7.000000

State OPDM analysis using libwa module will be excecuted
 NOs (alpha)
   Occupation of frontier NOs:
      0.3493   0.5085
   Number of electrons:  6.000000
 NOs (beta)
   Occupation of frontier NOs:
      0.4760   0.6747
   Number of electrons:  7.000000
 NOs (spin-traced)
   Occupation of frontier NOs:
      1.0240   1.2628
   Number of electrons: 13.000000
   Number of unpaired electrons: n_u =  3.00000, n_u,nl =  3.12936
   NO participation ratio (PR_NO):  4.195073
 
 Mulliken Population Analysis
 Atom      Charge (e)        Spin (e)
 ------------------------------------
  1 N        0.500000        0.500000
  2 N        0.500000        0.500000
 ------------------------------------
 Sum:        1.000000        1.000000
 
 Multipole moment analysis of the density matrix
   Molecular charge:                      1.000000
   Number of electrons:                   13.000000
     Center of electronic charge [Ang]: [  0.000000,  -0.000000,   0.000000]
   Total nuclear charge:                  14.000000
     Center of nuclear charge [Ang]:    [  0.000000,   0.000000,   0.000000]
   Dipole moment [D]:                     0.000000
     Cartesian components [D]:          [ -0.000000,   0.000000,  -0.000000]
   RMS size of the density [Ang]:         1.060865
     Cartesian components [Ang]:        [  0.461892,   0.481510,   0.824765]
 

 Excited state properties for  EOMIP-CCSD transition 9/B2g
 Dipole moment (a.u.): 0.000000 (X 0.000000, Y 0.000000, Z 0.000000)
 R-squared (a.u.): 50.594283 (XX 17.839087, YY 10.681862, ZZ 22.073333)
 Gauge origin (a.u.): (0.000000, 0.000000, 0.000000)
 Angular momentum (a.u.) against gauge origin: 
 (X 0.000000i, Y 0.000000i, Z 0.000000i)
 Traces of the OPDMs: Tr(AA) 6.000000, Tr(BB) 7.000000

State OPDM analysis using libwa module will be excecuted
 NOs (alpha)
   Occupation of frontier NOs:
      0.3643   0.4146
   Number of electrons:  6.000000
 NOs (beta)
   Occupation of frontier NOs:
      0.5546   0.6823
   Number of electrons:  7.000000
 NOs (spin-traced)
   Occupation of frontier NOs:
      1.0467   1.1218
   Number of electrons: 13.000000
   Number of unpaired electrons: n_u =  3.00000, n_u,nl =  3.05008
   NO participation ratio (PR_NO):  3.730241
 
 Mulliken Population Analysis
 Atom      Charge (e)        Spin (e)
 ------------------------------------
  1 N        0.500000        0.500000
  2 N        0.500000        0.500000
 ------------------------------------
 Sum:        1.000000        1.000000
 
 Multipole moment analysis of the density matrix
   Molecular charge:                      1.000000
   Number of electrons:                   13.000000
     Center of electronic charge [Ang]: [ -0.000000,   0.000000,  -0.000000]
   Total nuclear charge:                  14.000000
     Center of nuclear charge [Ang]:    [  0.000000,   0.000000,   0.000000]
   Dipole moment [D]:                     0.000000
     Cartesian components [D]:          [  0.000000,  -0.000000,   0.000000]
   RMS size of the density [Ang]:         1.043951
     Cartesian components [Ang]:        [  0.619892,   0.479681,   0.689546]
 

 Excited state properties for  EOMIP-CCSD transition 10/B2g
 Dipole moment (a.u.): 0.000000 (X 0.000000, Y 0.000000, Z 0.000000)
 R-squared (a.u.): 54.536728 (XX 13.758389, YY 10.992608, ZZ 29.785731)
 Gauge origin (a.u.): (0.000000, 0.000000, 0.000000)
 Angular momentum (a.u.) against gauge origin: 
 (X 0.000000i, Y 0.000000i, Z 0.000000i)
 Traces of the OPDMs: Tr(AA) 6.000000, Tr(BB) 7.000000

State OPDM analysis using libwa module will be excecuted
 NOs (alpha)
   Occupation of frontier NOs:
      0.3122   0.5867
   Number of electrons:  6.000000
 NOs (beta)
   Occupation of frontier NOs:
      0.1911   0.7670
   Number of electrons:  7.000000
 NOs (spin-traced)
   Occupation of frontier NOs:
      1.1130   1.3702
   Number of electrons: 13.000000
   Number of unpaired electrons: n_u =  3.00000, n_u,nl =  3.21758
   NO participation ratio (PR_NO):  4.966973
 
 Mulliken Population Analysis
 Atom      Charge (e)        Spin (e)
 ------------------------------------
  1 N        0.500000        0.500000
  2 N        0.500000        0.500000
 ------------------------------------
 Sum:        1.000000        1.000000
 
 Multipole moment analysis of the density matrix
   Molecular charge:                      1.000000
   Number of electrons:                   13.000000
     Center of electronic charge [Ang]: [  0.000000,  -0.000000,   0.000000]
   Total nuclear charge:                  14.000000
     Center of nuclear charge [Ang]:    [  0.000000,   0.000000,   0.000000]
   Dipole moment [D]:                     0.000000
     Cartesian components [D]:          [ -0.000000,   0.000000,  -0.000000]
   RMS size of the density [Ang]:         1.083862
     Cartesian components [Ang]:        [  0.544394,   0.486609,   0.801002]
 

 EOMIP-CCSD calculation:   CPU 14.53 s  wall 14.07 s


 Start computing the transition properties

 ------------------------------------------------------------------------------
 State A: eomip_ccsd/a: 1/B2g
 State B: eomip_ccsd/a: 2/B2g
 Transition dipole moment (a.u.):
   A->B: 0.000000 (X 0.000000, Y 0.000000, Z 0.000000)
   B->A: 0.000000 (X 0.000000, Y 0.000000, Z 0.000000)
 Oscillator strength (a.u.): -0.000000
 Transition angular momentum against gauge origin (a.u.):
   A->B:  (X 0.000000i, Y 0.000000i, Z 0.000000i)
   B->A:  (X 0.000000i, Y 0.000000i, Z 0.000000i)
 Norm of one-particle transition density matrix:
   A->B: 0.028790;   B->A: 0.014347
   ||gamma^AB||*||gamma^BA||: 0.000413

State analysis of transition OPDM (A->B) using libwa module will be excecuted
 
 CT numbers (Mulliken)
   omega =     0.0008 (alpha:     0.0004, beta:     0.0004)
   <Phe> =     0.9989 (alpha:     0.9989, beta:     0.9989)
 
 Exciton analysis of the transition density matrix
 Total:
   Trans. dipole moment [D]:             0.000000
     Cartesian components [D]:         [  0.000000,  -0.000000,  -0.000000]
   <r_h> [Ang]:                        [  0.000000,  -0.000000,  -0.000000]
   <r_e> [Ang]:                        [  0.000000,  -0.000000,   0.000000]
   |<r_e - r_h>| [Ang]:                  0.000000
   Hole size [Ang]:                      0.962868
     Cartesian components [Ang]:       [  0.543710,   0.472618,   0.638848]
   Electron size [Ang]:                  0.955040
     Cartesian components [Ang]:       [  0.532833,   0.465830,   0.641243]
   RMS electron-hole separation [Ang]:   1.339979
     Cartesian components [Ang]:       [  0.769178,   0.670160,   0.868789]
   Covariance(r_h, r_e) [Ang^2]:         0.021836
   Correlation coefficient:              0.023745
   Center-of-mass size [Ang]:            0.686092
     Cartesian components [Ang]:       [  0.376639,   0.328488,   0.470065]
 
 Alpha spin:
   Trans. dipole moment [D]:             0.000000
     Cartesian components [D]:         [  0.000000,  -0.000000,  -0.000000]
   <r_h> [Ang]:                        [  0.000000,  -0.000000,  -0.000000]
   <r_e> [Ang]:                        [  0.000000,  -0.000000,   0.000000]
   |<r_e - r_h>| [Ang]:                  0.000000
   Hole size [Ang]:                      0.962867
     Cartesian components [Ang]:       [  0.543701,   0.472622,   0.638851]
   Electron size [Ang]:                  0.955102
     Cartesian components [Ang]:       [  0.532859,   0.465952,   0.641225]
   RMS electron-hole separation [Ang]:   1.340017
     Cartesian components [Ang]:       [  0.769171,   0.670188,   0.868833]
   Covariance(r_h, r_e) [Ang^2]:         0.021843
   Correlation coefficient:              0.023752
   Center-of-mass size [Ang]:            0.686116
     Cartesian components [Ang]:       [  0.376655,   0.328562,   0.470034]
 
 Beta spin:
   Trans. dipole moment [D]:             0.000000
     Cartesian components [D]:         [  0.000000,  -0.000000,  -0.000000]
   <r_h> [Ang]:                        [  0.000000,  -0.000000,  -0.000000]
   <r_e> [Ang]:                        [  0.000000,  -0.000000,   0.000000]
   |<r_e - r_h>| [Ang]:                  0.000000
   Hole size [Ang]:                      0.962869
     Cartesian components [Ang]:       [  0.543718,   0.472615,   0.638845]
   Electron size [Ang]:                  0.954978
     Cartesian components [Ang]:       [  0.532807,   0.465708,   0.641261]
   RMS electron-hole separation [Ang]:   1.339942
     Cartesian components [Ang]:       [  0.769186,   0.670132,   0.868745]
   Covariance(r_h, r_e) [Ang^2]:         0.021828
   Correlation coefficient:              0.023739
   Center-of-mass size [Ang]:            0.686068
     Cartesian components [Ang]:       [  0.376623,   0.328413,   0.470095]

 ------------------------------------------------------------------------------
 State A: eomip_ccsd/a: 1/B2g
 State B: eomip_ccsd/a: 3/B2g
 Transition dipole moment (a.u.):
   A->B: 0.000000 (X 0.000000, Y 0.000000, Z 0.000000)
   B->A: 0.000000 (X 0.000000, Y 0.000000, Z 0.000000)
 Oscillator strength (a.u.): -0.000000
 Transition angular momentum against gauge origin (a.u.):
   A->B:  (X 0.000000i, Y 0.000000i, Z 0.000000i)
   B->A:  (X 0.000000i, Y 0.000000i, Z 0.000000i)
 Norm of one-particle transition density matrix:
   A->B: 0.640390;   B->A: 0.647217
   ||gamma^AB||*||gamma^BA||: 0.414472

State analysis of transition OPDM (A->B) using libwa module will be excecuted
 
 CT numbers (Mulliken)
   omega =     0.4101 (alpha:     0.2050, beta:     0.2051)
   <Phe> =     0.9996 (alpha:     0.9996, beta:     0.9996)
 
 Exciton analysis of the transition density matrix
 Total:
   Trans. dipole moment [D]:             0.000000
     Cartesian components [D]:         [  0.000000,  -0.000000,   0.000000]
   <r_h> [Ang]:                        [  0.000000,  -0.000000,  -0.000000]
   <r_e> [Ang]:                        [  0.000000,  -0.000000,   0.000000]
   |<r_e - r_h>| [Ang]:                  0.000000
   Hole size [Ang]:                      0.961630
     Cartesian components [Ang]:       [  0.550303,   0.469890,   0.633326]
   Electron size [Ang]:                  0.956346
     Cartesian components [Ang]:       [  0.540019,   0.465401,   0.637479]
   RMS electron-hole separation [Ang]:   1.317799
     Cartesian components [Ang]:       [  0.771630,   0.661064,   0.839152]
   Covariance(r_h, r_e) [Ang^2]:         0.051368
   Correlation coefficient:              0.055856
   Center-of-mass size [Ang]:            0.696790
     Cartesian components [Ang]:       [  0.385193,   0.330826,   0.477176]
 
 Alpha spin:
   Trans. dipole moment [D]:             0.000000
     Cartesian components [D]:         [  0.000000,  -0.000000,   0.000000]
   <r_h> [Ang]:                        [  0.000000,  -0.000000,  -0.000000]
   <r_e> [Ang]:                        [  0.000000,  -0.000000,  -0.000000]
   |<r_e - r_h>| [Ang]:                  0.000000
   Hole size [Ang]:                      0.961629
     Cartesian components [Ang]:       [  0.550308,   0.469886,   0.633324]
   Electron size [Ang]:                  0.956390
     Cartesian components [Ang]:       [  0.540041,   0.465456,   0.637486]
   RMS electron-hole separation [Ang]:   1.317824
     Cartesian components [Ang]:       [  0.771646,   0.661101,   0.839148]
   Covariance(r_h, r_e) [Ang^2]:         0.051376
   Correlation coefficient:              0.055862
   Center-of-mass size [Ang]:            0.696808
     Cartesian components [Ang]:       [  0.385204,   0.330844,   0.477181]
 
 Beta spin:
   Trans. dipole moment [D]:             0.000000
     Cartesian components [D]:         [  0.000000,  -0.000000,   0.000000]
   <r_h> [Ang]:                        [  0.000000,  -0.000000,  -0.000000]
   <r_e> [Ang]:                        [  0.000000,  -0.000000,   0.000000]
   |<r_e - r_h>| [Ang]:                  0.000000
   Hole size [Ang]:                      0.961630
     Cartesian components [Ang]:       [  0.550298,   0.469894,   0.633329]
   Electron size [Ang]:                  0.956303
     Cartesian components [Ang]:       [  0.539997,   0.465346,   0.637472]
   RMS electron-hole separation [Ang]:   1.317774
     Cartesian components [Ang]:       [  0.771613,   0.661028,   0.839156]
   Covariance(r_h, r_e) [Ang^2]:         0.051360
   Correlation coefficient:              0.055850
   Center-of-mass size [Ang]:            0.696773
     Cartesian components [Ang]:       [  0.385182,   0.330809,   0.477171]

 ------------------------------------------------------------------------------
 State A: eomip_ccsd/a: 1/B2g
 State B: eomip_ccsd/a: 4/B2g
 Transition dipole moment (a.u.):
   A->B: 0.000000 (X 0.000000, Y 0.000000, Z 0.000000)
   B->A: 0.000000 (X 0.000000, Y 0.000000, Z 0.000000)
 Oscillator strength (a.u.): -0.000000
 Transition angular momentum against gauge origin (a.u.):
   A->B:  (X 0.000000i, Y 0.000000i, Z 0.000000i)
   B->A:  (X 0.000000i, Y 0.000000i, Z 0.000000i)
 Norm of one-particle transition density matrix:
   A->B: 0.575696;   B->A: 0.575648
   ||gamma^AB||*||gamma^BA||: 0.331398

State analysis of transition OPDM (A->B) using libwa module will be excecuted
 
 CT numbers (Mulliken)
   omega =     0.3314 (alpha:     0.1657, beta:     0.1657)
   <Phe> =     0.9994 (alpha:     0.9994, beta:     0.9994)
 
 Exciton analysis of the transition density matrix
 Total:
   Trans. dipole moment [D]:             0.000000
     Cartesian components [D]:         [ -0.000000,  -0.000000,  -0.000000]
   <r_h> [Ang]:                        [  0.000000,   0.000000,  -0.000000]
   <r_e> [Ang]:                        [  0.000000,   0.000000,  -0.000000]
   |<r_e - r_h>| [Ang]:                  0.000000
   Hole size [Ang]:                      0.954121
     Cartesian components [Ang]:       [  0.539697,   0.539708,   0.572530]
   Electron size [Ang]:                  0.943322
     Cartesian components [Ang]:       [  0.528018,   0.528029,   0.576402]
   RMS electron-hole separation [Ang]:   1.341777
     Cartesian components [Ang]:       [  0.755479,   0.754706,   0.812427]
   Covariance(r_h, r_e) [Ang^2]:        -0.000082
   Correlation coefficient:             -0.000091
   Center-of-mass size [Ang]:            0.670828
     Cartesian components [Ang]:       [  0.377294,   0.377696,   0.406208]
 
 Alpha spin:
   Trans. dipole moment [D]:             0.000000
     Cartesian components [D]:         [ -0.000000,  -0.000000,  -0.000000]
   <r_h> [Ang]:                        [  0.000000,   0.000000,  -0.000000]
   <r_e> [Ang]:                        [  0.000000,   0.000000,  -0.000000]
   |<r_e - r_h>| [Ang]:                  0.000000
   Hole size [Ang]:                      0.954121
     Cartesian components [Ang]:       [  0.539691,   0.539714,   0.572530]
   Electron size [Ang]:                  0.943322
     Cartesian components [Ang]:       [  0.528011,   0.528035,   0.576402]
   RMS electron-hole separation [Ang]:   1.341777
     Cartesian components [Ang]:       [  0.755467,   0.754719,   0.812424]
   Covariance(r_h, r_e) [Ang^2]:        -0.000081
   Correlation coefficient:             -0.000090
   Center-of-mass size [Ang]:            0.670828
     Cartesian components [Ang]:       [  0.377291,   0.377698,   0.406210]
 
 Beta spin:
   Trans. dipole moment [D]:             0.000000
     Cartesian components [D]:         [ -0.000000,  -0.000000,  -0.000000]
   <r_h> [Ang]:                        [  0.000000,   0.000000,  -0.000000]
   <r_e> [Ang]:                        [  0.000000,   0.000000,  -0.000000]
   |<r_e - r_h>| [Ang]:                  0.000000
   Hole size [Ang]:                      0.954121
     Cartesian components [Ang]:       [  0.539703,   0.539701,   0.572529]
   Electron size [Ang]:                  0.943322
     Cartesian components [Ang]:       [  0.528024,   0.528022,   0.576402]
   RMS electron-hole separation [Ang]:   1.341778
     Cartesian components [Ang]:       [  0.755491,   0.754692,   0.812429]
   Covariance(r_h, r_e) [Ang^2]:        -0.000083
   Correlation coefficient:             -0.000092
   Center-of-mass size [Ang]:            0.670828
     Cartesian components [Ang]:       [  0.377297,   0.377694,   0.406207]

 ------------------------------------------------------------------------------
 State A: eomip_ccsd/a: 1/B2g
 State B: eomip_ccsd/a: 5/B2g
 Transition dipole moment (a.u.):
   A->B: 0.000000 (X 0.000000, Y 0.000000, Z 0.000000)
   B->A: 0.000000 (X 0.000000, Y 0.000000, Z 0.000000)
 Oscillator strength (a.u.): -0.000000
 Transition angular momentum against gauge origin (a.u.):
   A->B:  (X 0.000000i, Y 0.000000i, Z 0.000000i)
   B->A:  (X 0.000000i, Y 0.000000i, Z 0.000000i)
 Norm of one-particle transition density matrix:
   A->B: 0.239662;   B->A: 0.245764
   ||gamma^AB||*||gamma^BA||: 0.058900

State analysis of transition OPDM (A->B) using libwa module will be excecuted
 
 CT numbers (Mulliken)
   omega =     0.0574 (alpha:     0.0287, beta:     0.0287)
   <Phe> =     0.9992 (alpha:     0.9992, beta:     0.9992)
 
 Exciton analysis of the transition density matrix
 Total:
   Trans. dipole moment [D]:             0.000000
     Cartesian components [D]:         [ -0.000000,  -0.000000,  -0.000000]
   <r_h> [Ang]:                        [  0.000000,   0.000000,  -0.000000]
   <r_e> [Ang]:                        [  0.000000,   0.000000,  -0.000000]
   |<r_e - r_h>| [Ang]:                  0.000000
   Hole size [Ang]:                      0.954348
     Cartesian components [Ang]:       [  0.558505,   0.518615,   0.574362]
   Electron size [Ang]:                  0.944728
     Cartesian components [Ang]:       [  0.546807,   0.508662,   0.578599]
   RMS electron-hole separation [Ang]:   1.311150
     Cartesian components [Ang]:       [  0.781652,   0.725642,   0.762613]
   Covariance(r_h, r_e) [Ang^2]:         0.042089
   Correlation coefficient:              0.046682
   Center-of-mass size [Ang]:            0.686926
     Cartesian components [Ang]:       [  0.390791,   0.363607,   0.432365]
 
 Alpha spin:
   Trans. dipole moment [D]:             0.000000
     Cartesian components [D]:         [ -0.000000,  -0.000000,  -0.000000]
   <r_h> [Ang]:                        [  0.000000,   0.000000,  -0.000000]
   <r_e> [Ang]:                        [  0.000000,   0.000000,  -0.000000]
   |<r_e - r_h>| [Ang]:                  0.000000
   Hole size [Ang]:                      0.954348
     Cartesian components [Ang]:       [  0.558505,   0.518613,   0.574363]
   Electron size [Ang]:                  0.944725
     Cartesian components [Ang]:       [  0.546807,   0.508656,   0.578598]
   RMS electron-hole separation [Ang]:   1.311124
     Cartesian components [Ang]:       [  0.781653,   0.725635,   0.762574]
   Covariance(r_h, r_e) [Ang^2]:         0.042119
   Correlation coefficient:              0.046716
   Center-of-mass size [Ang]:            0.686936
     Cartesian components [Ang]:       [  0.390791,   0.363605,   0.432382]
 
 Beta spin:
   Trans. dipole moment [D]:             0.000000
     Cartesian components [D]:         [ -0.000000,  -0.000000,  -0.000000]
   <r_h> [Ang]:                        [  0.000000,   0.000000,  -0.000000]
   <r_e> [Ang]:                        [  0.000000,   0.000000,  -0.000000]
   |<r_e - r_h>| [Ang]:                  0.000000
   Hole size [Ang]:                      0.954349
     Cartesian components [Ang]:       [  0.558504,   0.518618,   0.574360]
   Electron size [Ang]:                  0.944732
     Cartesian components [Ang]:       [  0.546808,   0.508667,   0.578600]
   RMS electron-hole separation [Ang]:   1.311176
     Cartesian components [Ang]:       [  0.781651,   0.725649,   0.762652]
   Covariance(r_h, r_e) [Ang^2]:         0.042059
   Correlation coefficient:              0.046649
   Center-of-mass size [Ang]:            0.686917
     Cartesian components [Ang]:       [  0.390792,   0.363609,   0.432348]

 ------------------------------------------------------------------------------
 State A: eomip_ccsd/a: 1/B2g
 State B: eomip_ccsd/a: 6/B2g
 Transition dipole moment (a.u.):
   A->B: 0.000000 (X 0.000000, Y 0.000000, Z 0.000000)
   B->A: 0.000000 (X 0.000000, Y 0.000000, Z 0.000000)
 Oscillator strength (a.u.): -0.000000
 Transition angular momentum against gauge origin (a.u.):
   A->B:  (X 0.000000i, Y 0.000000i, Z 0.000000i)
   B->A:  (X 0.000000i, Y 0.000000i, Z 0.000000i)
 Norm of one-particle transition density matrix:
   A->B: 0.669867;   B->A: 0.683290
   ||gamma^AB||*||gamma^BA||: 0.457713

State analysis of transition OPDM (A->B) using libwa module will be excecuted
 
 CT numbers (Mulliken)
   omega =     0.4487 (alpha:     0.2244, beta:     0.2244)
   <Phe> =     0.9882 (alpha:     0.9882, beta:     0.9882)
 
 Exciton analysis of the transition density matrix
 Total:
   Trans. dipole moment [D]:             0.000000
     Cartesian components [D]:         [ -0.000000,  -0.000000,   0.000000]
   <r_h> [Ang]:                        [  0.000000,  -0.000000,  -0.000000]
   <r_e> [Ang]:                        [  0.000000,  -0.000000,  -0.000000]
   |<r_e - r_h>| [Ang]:                  0.000000
   Hole size [Ang]:                      0.964431
     Cartesian components [Ang]:       [  0.355096,   0.613283,   0.654154]
   Electron size [Ang]:                  1.036510
     Cartesian components [Ang]:       [  0.379649,   0.655952,   0.707069]
   RMS electron-hole separation [Ang]:   1.618026
     Cartesian components [Ang]:       [  0.519721,   0.896604,   1.242578]
   Covariance(r_h, r_e) [Ang^2]:        -0.306765
   Correlation coefficient:             -0.306875
   Center-of-mass size [Ang]:            0.589692
     Cartesian components [Ang]:       [  0.259972,   0.449689,   0.279162]
 
 Alpha spin:
   Trans. dipole moment [D]:             0.000000
     Cartesian components [D]:         [ -0.000000,  -0.000000,   0.000000]
   <r_h> [Ang]:                        [  0.000000,  -0.000000,  -0.000000]
   <r_e> [Ang]:                        [  0.000000,  -0.000000,  -0.000000]
   |<r_e - r_h>| [Ang]:                  0.000000
   Hole size [Ang]:                      0.964434
     Cartesian components [Ang]:       [  0.355097,   0.613286,   0.654155]
   Electron size [Ang]:                  1.036514
     Cartesian components [Ang]:       [  0.379645,   0.655948,   0.707081]
   RMS electron-hole separation [Ang]:   1.618033
     Cartesian components [Ang]:       [  0.519720,   0.896605,   1.242587]
   Covariance(r_h, r_e) [Ang^2]:        -0.306769
   Correlation coefficient:             -0.306877
   Center-of-mass size [Ang]:            0.589694
     Cartesian components [Ang]:       [  0.259971,   0.449687,   0.279170]
 
 Beta spin:
   Trans. dipole moment [D]:             0.000000
     Cartesian components [D]:         [ -0.000000,  -0.000000,   0.000000]
   <r_h> [Ang]:                        [  0.000000,  -0.000000,  -0.000000]
   <r_e> [Ang]:                        [  0.000000,  -0.000000,  -0.000000]
   |<r_e - r_h>| [Ang]:                  0.000000
   Hole size [Ang]:                      0.964428
     Cartesian components [Ang]:       [  0.355095,   0.613281,   0.654152]
   Electron size [Ang]:                  1.036506
     Cartesian components [Ang]:       [  0.379652,   0.655957,   0.707056]
   RMS electron-hole separation [Ang]:   1.618020
     Cartesian components [Ang]:       [  0.519722,   0.896603,   1.242570]
   Covariance(r_h, r_e) [Ang^2]:        -0.306762
   Correlation coefficient:             -0.306874
   Center-of-mass size [Ang]:            0.589691
     Cartesian components [Ang]:       [  0.259974,   0.449691,   0.279154]

 ------------------------------------------------------------------------------
 State A: eomip_ccsd/a: 1/B2g
 State B: eomip_ccsd/a: 7/B2g
 Transition dipole moment (a.u.):
   A->B: 0.000000 (X 0.000000, Y 0.000000, Z 0.000000)
   B->A: 0.000000 (X 0.000000, Y 0.000000, Z 0.000000)
 Oscillator strength (a.u.): -0.000000
 Transition angular momentum against gauge origin (a.u.):
   A->B:  (X 0.000000i, Y 0.000000i, Z 0.000000i)
   B->A:  (X 0.000000i, Y 0.000000i, Z 0.000000i)
 Norm of one-particle transition density matrix:
   A->B: 0.080574;   B->A: 0.086849
   ||gamma^AB||*||gamma^BA||: 0.006998

State analysis of transition OPDM (A->B) using libwa module will be excecuted
 
 CT numbers (Mulliken)
   omega =     0.0065 (alpha:     0.0032, beta:     0.0032)
   <Phe> =     0.9526 (alpha:     0.9525, beta:     0.9526)
 
 Exciton analysis of the transition density matrix
 Total:
   Trans. dipole moment [D]:             0.000000
     Cartesian components [D]:         [  0.000000,   0.000000,  -0.000000]
   <r_h> [Ang]:                        [  0.000000,  -0.000000,  -0.000000]
   <r_e> [Ang]:                        [  0.000000,  -0.000000,   0.000000]
   |<r_e - r_h>| [Ang]:                  0.000000
   Hole size [Ang]:                      0.965895
     Cartesian components [Ang]:       [  0.354418,   0.610461,   0.659301]
   Electron size [Ang]:                  1.156328
     Cartesian components [Ang]:       [  0.426996,   0.735674,   0.783296]
   RMS electron-hole separation [Ang]:   1.692243
     Cartesian components [Ang]:       [  0.548515,   0.950209,   1.288378]
   Covariance(r_h, r_e) [Ang^2]:        -0.296819
   Correlation coefficient:             -0.265755
[...]
   <r_e> [Ang]:                        [ -0.000000,   0.000000,  -0.000000]
   |<r_e - r_h>| [Ang]:                  0.000000
   Hole size [Ang]:                      1.077544
     Cartesian components [Ang]:       [  0.515953,   0.400072,   0.857226]
   Electron size [Ang]:                  1.349880
     Cartesian components [Ang]:       [  0.779143,   0.579451,   0.937736]
   RMS electron-hole separation [Ang]:   1.932759
     Cartesian components [Ang]:       [  0.959573,   0.701198,   1.524171]
   Covariance(r_h, r_e) [Ang^2]:        -0.376140
   Correlation coefficient:             -0.258594
   Center-of-mass size [Ang]:            0.746826
     Cartesian components [Ang]:       [  0.454357,   0.353540,   0.475729]

 ------------------------------------------------------------------------------
 State A: eomip_ccsd/a: 7/B2g
 State B: eomip_ccsd/a: 10/B2g
 Transition dipole moment (a.u.):
   A->B: 0.000000 (X 0.000000, Y 0.000000, Z 0.000000)
   B->A: 0.000000 (X 0.000000, Y 0.000000, Z 0.000000)
 Oscillator strength (a.u.): 0.000000
 Transition angular momentum against gauge origin (a.u.):
   A->B:  (X 0.000000i, Y 0.000000i, Z 0.000000i)
   B->A:  (X 0.000000i, Y 0.000000i, Z 0.000000i)
 Norm of one-particle transition density matrix:
   A->B: 0.066008;   B->A: 0.064822
   ||gamma^AB||*||gamma^BA||: 0.004279

State analysis of transition OPDM (A->B) using libwa module will be excecuted
 
 CT numbers (Mulliken)
   omega =     0.0044 (alpha:     0.0028, beta:     0.0016)
   <Phe> =     0.4146 (alpha:     0.2895, beta:     0.6393)
 
 Exciton analysis of the transition density matrix
 Total:
   Trans. dipole moment [D]:             0.000000
     Cartesian components [D]:         [  0.000000,   0.000000,  -0.000000]
   <r_h> [Ang]:                        [  0.000000,  -0.000000,  -0.000000]
   <r_e> [Ang]:                        [  0.000000,  -0.000000,   0.000000]
   |<r_e - r_h>| [Ang]:                  0.000000
   Hole size [Ang]:                      1.246639
     Cartesian components [Ang]:       [  0.701213,   0.517288,   0.891528]
   Electron size [Ang]:                  2.058232
     Cartesian components [Ang]:       [  1.066945,   0.882886,   1.522649]
   RMS electron-hole separation [Ang]:   2.350886
     Cartesian components [Ang]:       [  1.333292,   1.017868,   1.647101]
   Covariance(r_h, r_e) [Ang^2]:         0.131882
   Correlation coefficient:              0.051398
   Center-of-mass size [Ang]:            1.230263
     Cartesian components [Ang]:       [  0.608785,   0.514318,   0.937233]
 
 Alpha spin:
   Trans. dipole moment [D]:             0.000000
     Cartesian components [D]:         [  0.000000,   0.000000,  -0.000000]
   <r_h> [Ang]:                        [  0.000000,  -0.000000,  -0.000000]
   <r_e> [Ang]:                        [  0.000000,  -0.000000,   0.000000]
   |<r_e - r_h>| [Ang]:                  0.000000
   Hole size [Ang]:                      1.176615
     Cartesian components [Ang]:       [  0.635818,   0.440771,   0.886498]
   Electron size [Ang]:                  2.122426
     Cartesian components [Ang]:       [  1.089791,   0.905409,   1.580278]
   RMS electron-hole separation [Ang]:   2.375171
     Cartesian components [Ang]:       [  1.259298,   1.000489,   1.747750]
   Covariance(r_h, r_e) [Ang^2]:         0.123837
   Correlation coefficient:              0.049589
   Center-of-mass size [Ang]:            1.238627
     Cartesian components [Ang]:       [  0.632058,   0.506732,   0.936975]
 
 Beta spin:
   Trans. dipole moment [D]:             0.000000
     Cartesian components [D]:         [  0.000000,   0.000000,  -0.000000]
   <r_h> [Ang]:                        [  0.000000,   0.000000,  -0.000000]
   <r_e> [Ang]:                        [  0.000000,  -0.000000,   0.000000]
   |<r_e - r_h>| [Ang]:                  0.000000
   Hole size [Ang]:                      1.363453
     Cartesian components [Ang]:       [  0.805483,   0.631909,   0.900496]
   Electron size [Ang]:                  1.937552
     Cartesian components [Ang]:       [  1.024617,   0.840900,   1.413207]
   RMS electron-hole separation [Ang]:   2.306607
     Cartesian components [Ang]:       [  1.456833,   1.048370,   1.448791]
   Covariance(r_h, r_e) [Ang^2]:         0.146338
   Correlation coefficient:              0.055394
   Center-of-mass size [Ang]:            1.215091
     Cartesian components [Ang]:       [  0.564563,   0.527675,   0.937697]

 ------------------------------------------------------------------------------
 State A: eomip_ccsd/a: 8/B2g
 State B: eomip_ccsd/a: 9/B2g
 Transition dipole moment (a.u.):
   A->B: 0.000000 (X 0.000000, Y 0.000000, Z 0.000000)
   B->A: 0.000000 (X 0.000000, Y 0.000000, Z 0.000000)
 Oscillator strength (a.u.): 0.000000
 Transition angular momentum against gauge origin (a.u.):
   A->B:  (X 0.000000i, Y 0.000000i, Z 0.000000i)
   B->A:  (X 0.000000i, Y 0.000000i, Z 0.000000i)
 Norm of one-particle transition density matrix:
   A->B: 0.254104;   B->A: 0.245128
   ||gamma^AB||*||gamma^BA||: 0.062288

State analysis of transition OPDM (A->B) using libwa module will be excecuted
 
 CT numbers (Mulliken)
   omega =     0.0646 (alpha:     0.0279, beta:     0.0366)
   <Phe> =     0.7397 (alpha:     0.8784, beta:     0.6341)
 
 Exciton analysis of the transition density matrix
 Total:
   Trans. dipole moment [D]:             0.000000
     Cartesian components [D]:         [ -0.000000,  -0.000000,   0.000000]
   <r_h> [Ang]:                        [  0.000000,   0.000000,  -0.000000]
   <r_e> [Ang]:                        [  0.000000,   0.000000,  -0.000000]
   |<r_e - r_h>| [Ang]:                  0.000000
   Hole size [Ang]:                      1.974902
     Cartesian components [Ang]:       [  1.070763,   0.895647,   1.396968]
   Electron size [Ang]:                  1.620685
     Cartesian components [Ang]:       [  1.046186,   0.808538,   0.937221]
   RMS electron-hole separation [Ang]:   2.733091
     Cartesian components [Ang]:       [  1.831557,   1.206069,   1.631130]
   Covariance(r_h, r_e) [Ang^2]:        -0.471465
   Correlation coefficient:             -0.147301
   Center-of-mass size [Ang]:            1.181517
     Cartesian components [Ang]:       [  0.530913,   0.603580,   0.865913]
 
 Alpha spin:
   Trans. dipole moment [D]:             0.000000
     Cartesian components [D]:         [ -0.000000,  -0.000000,   0.000000]
   <r_h> [Ang]:                        [  0.000000,   0.000000,  -0.000000]
   <r_e> [Ang]:                        [  0.000000,   0.000000,  -0.000000]
   |<r_e - r_h>| [Ang]:                  0.000000
   Hole size [Ang]:                      1.560648
     Cartesian components [Ang]:       [  0.824986,   0.678210,   1.138004]
   Electron size [Ang]:                  1.354198
     Cartesian components [Ang]:       [  0.807344,   0.623436,   0.890717]
   RMS electron-hole separation [Ang]:   2.247026
     Cartesian components [Ang]:       [  1.395782,   0.921467,   1.500606]
   Covariance(r_h, r_e) [Ang^2]:        -0.389826
   Correlation coefficient:             -0.184452
   Center-of-mass size [Ang]:            0.934053
     Cartesian components [Ang]:       [  0.423262,   0.460483,   0.693729]
 
 Beta spin:
   Trans. dipole moment [D]:             0.000000
     Cartesian components [D]:         [ -0.000000,  -0.000000,   0.000000]
   <r_h> [Ang]:                        [  0.000000,   0.000000,  -0.000000]
   <r_e> [Ang]:                        [  0.000000,   0.000000,  -0.000000]
   |<r_e - r_h>| [Ang]:                  0.000000
   Hole size [Ang]:                      2.239723
     Cartesian components [Ang]:       [  1.225398,   1.031006,   1.565818]
   Electron size [Ang]:                  1.797431
     Cartesian components [Ang]:       [  1.196608,   0.925055,   0.971165]
   RMS electron-hole separation [Ang]:   3.051963
     Cartesian components [Ang]:       [  2.103891,   1.384208,   1.723974]
   Covariance(r_h, r_e) [Ang^2]:        -0.533680
   Correlation coefficient:             -0.132567
   Center-of-mass size [Ang]:            1.339754
     Cartesian components [Ang]:       [  0.600121,   0.693067,   0.976960]

 ------------------------------------------------------------------------------
 State A: eomip_ccsd/a: 8/B2g
 State B: eomip_ccsd/a: 10/B2g
 Transition dipole moment (a.u.):
   A->B: 0.000000 (X 0.000000, Y 0.000000, Z 0.000000)
   B->A: 0.000000 (X 0.000000, Y 0.000000, Z 0.000000)
 Oscillator strength (a.u.): 0.000000
 Transition angular momentum against gauge origin (a.u.):
   A->B:  (X 0.000000i, Y 0.000000i, Z 0.000000i)
   B->A:  (X 0.000000i, Y 0.000000i, Z 0.000000i)
 Norm of one-particle transition density matrix:
   A->B: 0.567195;   B->A: 0.566634
   ||gamma^AB||*||gamma^BA||: 0.321392

State analysis of transition OPDM (A->B) using libwa module will be excecuted
 
 CT numbers (Mulliken)
   omega =     0.3217 (alpha:     0.1609, beta:     0.1608)
   <Phe> =     0.9913 (alpha:     0.9913, beta:     0.9913)
 
 Exciton analysis of the transition density matrix
 Total:
   Trans. dipole moment [D]:             0.000000
     Cartesian components [D]:         [ -0.000000,  -0.000000,   0.000000]
   <r_h> [Ang]:                        [  0.000000,  -0.000000,   0.000000]
   <r_e> [Ang]:                        [  0.000000,  -0.000000,   0.000000]
   |<r_e - r_h>| [Ang]:                  0.000000
   Hole size [Ang]:                      1.881670
     Cartesian components [Ang]:       [  0.889783,   0.797823,   1.453426]
   Electron size [Ang]:                  2.005754
     Cartesian components [Ang]:       [  0.927286,   0.837896,   1.568796]
   RMS electron-hole separation [Ang]:   2.536538
     Cartesian components [Ang]:       [  1.252509,   1.154025,   1.879753]
   Covariance(r_h, r_e) [Ang^2]:         0.564853
   Correlation coefficient:              0.149663
   Center-of-mass size [Ang]:            1.474232
     Cartesian components [Ang]:       [  0.658477,   0.579959,   1.184658]
 
 Alpha spin:
   Trans. dipole moment [D]:             0.000000
     Cartesian components [D]:         [ -0.000000,  -0.000000,   0.000000]
   <r_h> [Ang]:                        [  0.000000,  -0.000000,   0.000000]
   <r_e> [Ang]:                        [  0.000000,  -0.000000,   0.000000]
   |<r_e - r_h>| [Ang]:                  0.000000
   Hole size [Ang]:                      1.881602
     Cartesian components [Ang]:       [  0.889697,   0.797810,   1.453397]
   Electron size [Ang]:                  2.005597
     Cartesian components [Ang]:       [  0.927221,   0.837889,   1.568637]
   RMS electron-hole separation [Ang]:   2.536382
     Cartesian components [Ang]:       [  1.252401,   1.153994,   1.879633]
   Covariance(r_h, r_e) [Ang^2]:         0.564805
   Correlation coefficient:              0.149667
   Center-of-mass size [Ang]:            1.474148
     Cartesian components [Ang]:       [  0.658425,   0.579960,   1.184583]
 
 Beta spin:
   Trans. dipole moment [D]:             0.000000
     Cartesian components [D]:         [ -0.000000,  -0.000000,   0.000000]
   <r_h> [Ang]:                        [  0.000000,  -0.000000,   0.000000]
   <r_e> [Ang]:                        [  0.000000,  -0.000000,   0.000000]
   |<r_e - r_h>| [Ang]:                  0.000000
   Hole size [Ang]:                      1.881738
     Cartesian components [Ang]:       [  0.889869,   0.797835,   1.453455]
   Electron size [Ang]:                  2.005911
     Cartesian components [Ang]:       [  0.927350,   0.837904,   1.568954]
   RMS electron-hole separation [Ang]:   2.536694
     Cartesian components [Ang]:       [  1.252616,   1.154055,   1.879873]
   Covariance(r_h, r_e) [Ang^2]:         0.564902
   Correlation coefficient:              0.149659
   Center-of-mass size [Ang]:            1.474315
     Cartesian components [Ang]:       [  0.658529,   0.579958,   1.184733]

 ------------------------------------------------------------------------------
 State A: eomip_ccsd/a: 9/B2g
 State B: eomip_ccsd/a: 10/B2g
 Transition dipole moment (a.u.):
   A->B: 0.000000 (X 0.000000, Y 0.000000, Z 0.000000)
   B->A: 0.000000 (X 0.000000, Y 0.000000, Z 0.000000)
 Oscillator strength (a.u.): 0.000000
 Transition angular momentum against gauge origin (a.u.):
   A->B:  (X 0.000000i, Y 0.000000i, Z 0.000000i)
   B->A:  (X 0.000000i, Y 0.000000i, Z 0.000000i)
 Norm of one-particle transition density matrix:
   A->B: 0.481868;   B->A: 0.479471
   ||gamma^AB||*||gamma^BA||: 0.231042

State analysis of transition OPDM (A->B) using libwa module will be excecuted
 
 CT numbers (Mulliken)
   omega =     0.2322 (alpha:     0.1161, beta:     0.1160)
   <Phe> =     0.9626 (alpha:     0.9627, beta:     0.9626)
 
 Exciton analysis of the transition density matrix
 Total:
   Trans. dipole moment [D]:             0.000000
     Cartesian components [D]:         [ -0.000000,  -0.000000,   0.000000]
   <r_h> [Ang]:                        [ -0.000000,  -0.000000,  -0.000000]
   <r_e> [Ang]:                        [ -0.000000,  -0.000000,   0.000000]
   |<r_e - r_h>| [Ang]:                  0.000000
   Hole size [Ang]:                      2.075671
     Cartesian components [Ang]:       [  1.505424,   0.902573,   1.107913]
   Electron size [Ang]:                  2.160443
     Cartesian components [Ang]:       [  1.540169,   0.935184,   1.191983]
   RMS electron-hole separation [Ang]:   3.006109
     Cartesian components [Ang]:       [  2.281567,   1.299610,   1.463611]
   Covariance(r_h, r_e) [Ang^2]:        -0.030384
   Correlation coefficient:             -0.006775
   Center-of-mass size [Ang]:            1.492913
     Cartesian components [Ang]:       [  1.008872,   0.649890,   0.888036]
 
 Alpha spin:
   Trans. dipole moment [D]:             0.000000
     Cartesian components [D]:         [ -0.000000,  -0.000000,   0.000000]
   <r_h> [Ang]:                        [ -0.000000,  -0.000000,  -0.000000]
   <r_e> [Ang]:                        [ -0.000000,  -0.000000,   0.000000]
   |<r_e - r_h>| [Ang]:                  0.000000
   Hole size [Ang]:                      2.075527
     Cartesian components [Ang]:       [  1.505243,   0.902488,   1.107959]
   Electron size [Ang]:                  2.160705
     Cartesian components [Ang]:       [  1.540303,   0.935290,   1.192202]
   RMS electron-hole separation [Ang]:   3.006497
     Cartesian components [Ang]:       [  2.281764,   1.299633,   1.464079]
   Covariance(r_h, r_e) [Ang^2]:        -0.031282
   Correlation coefficient:             -0.006975
   Center-of-mass size [Ang]:            1.492807
     Cartesian components [Ang]:       [  1.008728,   0.649896,   0.888019]
 
 Beta spin:
   Trans. dipole moment [D]:             0.000000
     Cartesian components [D]:         [ -0.000000,  -0.000000,   0.000000]
   <r_h> [Ang]:                        [ -0.000000,  -0.000000,  -0.000000]
   <r_e> [Ang]:                        [ -0.000000,  -0.000000,   0.000000]
   |<r_e - r_h>| [Ang]:                  0.000000
   Hole size [Ang]:                      2.075815
     Cartesian components [Ang]:       [  1.505605,   0.902658,   1.107868]
   Electron size [Ang]:                  2.160181
     Cartesian components [Ang]:       [  1.540036,   0.935078,   1.191763]
   RMS electron-hole separation [Ang]:   3.005721
     Cartesian components [Ang]:       [  2.281370,   1.299587,   1.463141]
   Covariance(r_h, r_e) [Ang^2]:        -0.029484
   Correlation coefficient:             -0.006575
   Center-of-mass size [Ang]:            1.493019
     Cartesian components [Ang]:       [  1.009017,   0.649884,   0.888054]


 All requested transition properties have been computed

 Transition Properties:   CPU 3.74 s  wall 3.62 s

 Total ccman2 time:   CPU 28.89 s  wall 28.28 s


 --------------------------------------------------------------
             Orbital Energies (a.u.) and Symmetries
 --------------------------------------------------------------

 Alpha MOs, Restricted
 -- Occupied --                  
-15.699 -15.696  -1.478  -0.782  -0.634  -0.615  -0.615
  1 Ag    1 B1u   2 Ag    2 B1u   3 Ag    1 B3u   1 B2u                        
 -- Virtual --                   
  0.104   0.124   0.124   0.140   0.150   0.150   0.196   0.253
  3 B1u   1 B2g   1 B3g   4 Ag    2 B3u   2 B2u   5 Ag    2 B2g                
  0.253   0.325   0.586   0.586   0.691   0.713   0.801   0.801
  2 B3g   4 B1u   6 Ag    1 B1g   7 Ag    5 B1u   3 B3u   3 B2u                
  0.866   0.866   0.947   0.981   0.981   1.084   1.084   1.136
  6 B1u   1 Au    7 B1u   3 B2g   3 B3g   4 B3u   4 B2u   8 Ag                 
  1.330   1.384   1.384   1.901   2.223   2.223   2.245   2.245
  8 B1u   4 B2g   4 B3g   9 Ag    5 B3u   5 B2u   2 B1g  10 Ag                 
  2.651   2.651   2.955   2.997   3.132   3.132   3.334
  9 B1u   2 Au   11 Ag   10 B1u   5 B2g   5 B3g  11 B1u                        

 Beta MOs, Restricted
 -- Occupied --                  
-15.699 -15.696  -1.478  -0.782  -0.634  -0.615  -0.615
  1 Ag    1 B1u   2 Ag    2 B1u   3 Ag    1 B3u   1 B2u                        
 -- Virtual --                   
  0.104   0.124   0.124   0.140   0.150   0.150   0.196   0.253
  3 B1u   1 B2g   1 B3g   4 Ag    2 B3u   2 B2u   5 Ag    2 B2g                
  0.253   0.325   0.586   0.586   0.691   0.713   0.801   0.801
  2 B3g   4 B1u   6 Ag    1 B1g   7 Ag    5 B1u   3 B3u   3 B2u                
  0.866   0.866   0.947   0.981   0.981   1.084   1.084   1.136
  6 B1u   1 Au    7 B1u   3 B2g   3 B3g   4 B3u   4 B2u   8 Ag                 
  1.330   1.384   1.384   1.901   2.223   2.223   2.245   2.245
  8 B1u   4 B2g   4 B3g   9 Ag    5 B3u   5 B2u   2 B1g  10 Ag                 
  2.651   2.651   2.955   2.997   3.132   3.132   3.334
  9 B1u   2 Au   11 Ag   10 B1u   5 B2g   5 B3g  11 B1u                        
 --------------------------------------------------------------

          Ground-State Mulliken Net Atomic Charges

     Atom                 Charge (a.u.)
  ----------------------------------------
      1 N                    -0.000000
      2 N                     0.000000
  ----------------------------------------
  Sum of atomic charges =     0.000000

 -----------------------------------------------------------------
                    Cartesian Multipole Moments
 -----------------------------------------------------------------
    Charge (ESU x 10^10)
                 0.0000
    Dipole Moment (Debye)
         X      -0.0000      Y       0.0000      Z       0.0000
       Tot       0.0000
    Quadrupole Moments (Debye-Ang)
        XX     -10.4592     XY      -0.0000     YY     -10.4592
        XZ       0.0000     YZ       0.0000     ZZ     -11.6554
    Octopole Moments (Debye-Ang^2)
       XXX      -0.0000    XXY       0.0000    XYY      -0.0000
       YYY       0.0000    XXZ      -0.0000    XYZ       0.0000
       YYZ      -0.0000    XZZ       0.0000    YZZ       0.0000
       ZZZ       0.0000
    Hexadecapole Moments (Debye-Ang^3)
      XXXX      -9.2229   XXXY      -0.0000   XXYY      -3.0743
      XYYY      -0.0000   YYYY      -9.2229   XXXZ       0.0000
      XXYZ      -0.0000   XYYZ       0.0000   YYYZ      -0.0000
      XXZZ      -6.3343   XYZZ      -0.0000   YYZZ      -6.3343
      XZZZ       0.0000   YZZZ       0.0000   ZZZZ     -31.5018
 -----------------------------------------------------------------
Archival summary:
1\1\dirac.bu.edu\SP\ProcedureUnspecified\BasisUnspecified\2\gayverjr\TueJul2119:32:132020TueJul2119:32:132020\0\\#,ProcedureUnspecified,BasisUnspecified,\\0,1\N\N,1,2.078\\HF=-108.960387\\@

 Total job time:  29.80s(wall), 30.41s(cpu) 
 Tue Jul 21 19:32:13 2020

        *************************************************************
        *                                                           *
        *  Thank you very much for using Q-Chem.  Have a nice day.  *
        *                                                           *
        *************************************************************


