                  Welcome to Q-Chem
     A Quantum Leap Into The Future Of Chemistry


 Q-Chem 5.3 (devel), Q-Chem, Inc., Pleasanton, CA (2020)

 Yihan Shao,  Zhengting Gan,  E. Epifanovsky,  A. T. B. Gilbert,  M. Wormit,  
 J. Kussmann,  A. W. Lange,  A. Behn,  Jia Deng,  Xintian Feng,  D. Ghosh,  
 M. Goldey,  P. R. Horn,  L. D. Jacobson,  I. Kaliman,  T. Kus,  A. Landau,  
 Jie Liu,  E. I. Proynov,  R. M. Richard,  R. P. Steele,  E. J. Sundstrom,  
 H. L. Woodcock III,  P. M. Zimmerman,  D. Zuev,  B. Alam,  B. Albrecht,  
 A. Aldossary,  E. Alguire,  S. A. Baeppler,  D. Barton,  Z. Benda,  
 Y. A. Bernard,  E. J. Berquist,  K. B. Bravaya,  H. Burton,  K. Carter-Fenk,  
 D. Casanova,  Chun-Min Chang,  Yunqing Chen,  A. Chien,  K. D. Closser,  
 M. P. Coons,  S. Coriani,  S. Dasgupta,  A. L. Dempwolff,  M. Diedenhofen,  
 Hainam Do,  R. G. Edgar,  Po-Tung Fang,  S. Faraji,  S. Fatehi,  
 Qingguo Feng,  J. Fosso-Tande,  J. Gayvert,  Qinghui Ge,  A. Ghysels,  
 G. Gidofalvi,  J. Gomes,  J. Gonthier,  S. Gulania,  A. Gunina,  D. Hait,  
 M. W. D. Hanson-Heine,  S. Hammes-Schiffer,  P. H. P. Harbach,  
 A. W. Hauser,  M. F. Herbst,  J. E. Herr,  E. G. Hohenstein,  Z. C. Holden,  
 S. Houck,  Kerwin Hui,  B. C. Huynh,  M. Ivanov,  T.-C. Jagau,  Hyunjun Ji,  
 B. Kaduk,  K. Khistyaev,  Jaehoon Kim,  P. Klunzinger,  K. Koh,  
 D. Kosenkov,  L. Koulias,  T. Kowalczyk,  C. M. Krauter,  A. Kunitsa,  
 Ka Un Lao,  A. Laurent,  K. V. Lawler,  Joonho Lee,  D. Lefrancois,  
 S. Lehtola,  D. S. Levine,  Yi-Pei Li,  You-Sheng Lin,  Fenglai Liu,  
 Kuan-Yu Liu,  E. Livshits,  M. Loipersberger,  A. Luenser,  P. Manohar,  
 E. Mansoor,  S. F. Manzer,  Shan-Ping Mao,  Yuezhi Mao,  N. Mardirossian,  
 A. V. Marenich,  T. Markovich,  L. A. Martinez-Martinez,  S. A. Maurer,  
 N. J. Mayhall,  S. C. McKenzie,  J.-M. Mewes,  P. Morgante,  A. F. Morrison,  
 J. W. Mullinax,  K. Nanda,  T. S. Nguyen-Beck,  R. Olivares-Amaya,  
 K. J. Oosterbaan,  J. A. Parkhill,  S. K. Paul,  F. Pavosevic,  Zheng Pei,  
 T. M. Perrine,  F. Plasser,  P. Pokhilko,  S. Prager,  A. Prociuk,  
 E. Ramos,  B. Rana,  D. R. Rehn,  F. Rob,  E. Rossomme,  M. Scheurer,  
 M. Schneider,  N. Sergueev,  S. M. Sharada,  S. Sharma,  W. Skomorowski,  
 D. W. Small,  T. Stauch,  C. J. Stein,  T. Stein,  Yu-Chuan Su,  
 S. P. Veccham,  Zhen Tao,  A. J. W. Thom,  A. Tkatchenko,  T. Tsuchimochi,  
 N. M. Tubman,  L. Vogt,  M. L. Vidal,  O. Vydrov,  M. A. Watson,  J. Wenzel,  
 M. de Wergifosse,  T. A. Wesolowski,  A. White,  J. Witte,  A. Yamada,  
 Jun Yang,  K. Yao,  S. Yeganeh,  S. R. Yost,  Zhi-Qiang You,  A. Zech,  
 Igor Ying Zhang,  Xing Zhang,  Yan Zhao,  Ying Zhu,  B. R. Brooks,  
 G. K. L. Chan,  C. J. Cramer,  M. S. Gordon,  W. J. Hehre,  A. Klamt,  
 M. W. Schmidt,  C. D. Sherrill,  D. G. Truhlar,  A. Aspuru-Guzik,  R. Baer,  
 A. T. Bell,  N. A. Besley,  Jeng-Da Chai,  A. E. DePrince, III,  
 R. A. DiStasio Jr.,  A. Dreuw,  B. D. Dunietz,  T. R. Furlani,  
 Chao-Ping Hsu,  Yousung Jung,  Jing Kong,  D. S. Lambrecht,  WanZhen Liang,  
 C. Ochsenfeld,  V. A. Rassolov,  L. V. Slipchenko,  J. E. Subotnik,  
 T. Van Voorhis,  J. M. Herbert,  A. I. Krylov,  P. M. W. Gill,  M. Head-Gordon

 Contributors to earlier versions of Q-Chem not listed above: 
 R. D. Adamson,  B. Austin,  J. Baker,  G. J. O. Beran,  K. Brandhorst,  
 S. T. Brown,  E. F. C. Byrd,  A. K. Chakraborty,  C.-L. Cheng,  
 Siu Hung Chien,  D. M. Chipman,  D. L. Crittenden,  H. Dachsel,  
 R. J. Doerksen,  A. D. Dutoi,  L. Fusti-Molnar,  W. A. Goddard III,  
 A. Golubeva-Zadorozhnaya,  S. R. Gwaltney,  G. Hawkins,  A. Heyden,  
 S. Hirata,  G. Kedziora,  F. J. Keil,  C. Kelley,  Jihan Kim,  R. A. King,  
 R. Z. Khaliullin,  P. P. Korambath,  W. Kurlancheek,  A. M. Lee,  M. S. Lee,  
 S. V. Levchenko,  Ching Yeh Lin,  D. Liotard,  R. C. Lochan,  I. Lotan,  
 P. E. Maslen,  N. Nair,  D. P. O'Neill,  D. Neuhauser,  E. Neuscamman,  
 C. M. Oana,  R. Olson,  B. Peters,  R. Peverati,  P. A. Pieniazek,  
 Y. M. Rhee,  J. Ritchie,  M. A. Rohrdanz,  E. Rosta,  N. J. Russ,  
 H. F. Schaefer III,  N. E. Schultz,  N. Shenvi,  A. C. Simmonett,  A. Sodt,  
 D. Stuck,  K. S. Thanthiriwatte,  V. Vanovschi,  Tao Wang,  A. Warshel,  
 C. F. Williams,  Q. Wu,  X. Xu,  W. Zhang

 Please cite Q-Chem as follows:
 Y. Shao et al., Mol. Phys. 113, 184-215 (2015)
 DOI: 10.1080/00268976.2014.952696

 Q-Chem 5.3.0 for Intel X86 EM64T Linux

 Parts of Q-Chem use Armadillo 9.800.1 (Horizon Scraper).
 http://arma.sourceforge.net/

 Q-Chem begins on Sat Aug  8 10:49:13 2020  

Host: node11
0

     Scratch files written to /scratch/gayverjr/IP.3147601651.saved//
Processing $rem in /home/gayverjr/qchem_james/qc53/config/preferences:
Processing $rem in /home/gayverjr/.qchemrc:
Core orbitals will be frozen

Checking the input file for inconsistencies... 	...done.

--------------------------------------------------------------
User input:
--------------------------------------------------------------
$molecule
0	1
N        0.0     0.0     1.039
N        0.0     0.0     -1.039
Gh       0.0     0.0     0.0
$end

$rem
JOBTYPE	 sp
INPUT_BOHR 1
METHOD	 eom-ccsd
BASIS	 gen
GUI	 2 
IP_STATES	[0,0,3,0,0,0,0,0]
CC_TRANS_PROP 2
STATE_ANALYSIS 1
$end

$basis
N     0
S   6   1.00
      0.4150110000D+04       0.1845409911D-02
      0.6200840000D+03       0.1416449932D-01
      0.1416880000D+03       0.6863249671D-01
      0.4033670000D+02       0.2285739890D+00
      0.1302670000D+02       0.4661619776D+00
      0.4470030000D+01       0.3656719825D+00
SP   2   1.00
      0.5425220000D+01      -0.4133000774D+00       0.2379720162D+00
      0.1149150000D+01       0.1224417267D+01       0.8589530586D+00
SP   1   1.00
      0.2832050000D+00       0.1000000000D+01       0.1000000000D+01
****
Gh      0
S   6   1.00
      0.4150110000D+04       0.1845409911D-02
      0.6200840000D+03       0.1416449932D-01
      0.1416880000D+03       0.6863249671D-01
      0.4033670000D+02       0.2285739890D+00
      0.1302670000D+02       0.4661619776D+00
      0.4470030000D+01       0.3656719825D+00
P   1   1.00
      0.5425220000D+01       1.00000
D   1   1.00
      0.1870                 1.0000
F   1   1.00
      0.3492                 1.0000
G   1   1.00
      8.345000D+00           1.000000D+00
****
$end
--------------------------------------------------------------
 ----------------------------------------------------------------
             Standard Nuclear Orientation (Bohr)
    I     Atom           X                Y                Z
 ----------------------------------------------------------------
    1      N       0.0000000000     0.0000000000     1.0390000000
    2      N       0.0000000000     0.0000000000    -1.0390000000
    3      GH      0.0000000000     0.0000000000     0.0000000000
 ----------------------------------------------------------------
 Molecular Point Group                 D2h   NOp =  8
 Largest Abelian Subgroup              D2h   NOp =  8
 Nuclear Repulsion Energy =          23.58036574 hartrees
 There are        7 alpha and        7 beta electrons
 Requested basis set is non-standard
 There are 11 shells and 43 basis functions
 Total memory of 2000 MB is distributed as follows: 
   MEM_STATIC is set to 192 MB
   QALLOC/CCMAN JOB total memory use is  1808 MB
 Warning: actual memory use might exceed 2000 MB

 Total QAlloc Memory Limit   2000 MB
 Mega-Array Size       188 MB
 MEM_STATIC part       192 MB

                       Distance Matrix (Bohrs)
             N (  1)   N (  2)
   N (  2)  2.078000
   GH(  3)  1.039000  1.039000

 A cutoff of  1.0D-14 yielded     66 shell pairs
 There are      1040 function pairs (      1623 Cartesian)
 Smallest overlap matrix eigenvalue = 4.23E-03

 Scale SEOQF with 1.000000e+00/1.000000e+00/1.000000e+00

 Standard Electronic Orientation quadrupole field applied
 Nucleus-field energy     =    -0.0000000045 hartrees
 Guess MOs from core Hamiltonian diagonalization

 -----------------------------------------------------------------------
  General SCF calculation program by
  Eric Jon Sundstrom, Paul Horn, Yuezhi Mao, Dmitri Zuev, Alec White,
  David Stuck, Shaama M.S., Shane Yost, Joonho Lee, David Small,
  Daniel Levine, Susi Lehtola, Hugh Burton, Evgeny Epifanovsky,
  Bang C. Huynh
 -----------------------------------------------------------------------
 Hartree-Fock
 using 16 threads for integral computing
 -------------------------------------------------------
 OpenMP Integral computing Module                
 Release: version 2.0, May 2017, Q-Chem Inc. Pleasanton 
 -------------------------------------------------------
 A restricted SCF calculation will be
 performed using DIIS
 SCF converges when DIIS error is below 1.0e-08
 ---------------------------------------
  Cycle       Energy         DIIS error
 ---------------------------------------
    1     -99.0128357605      1.67e-01  
    2    -105.6552047250      1.03e-01  
    3    -108.7613887943      1.36e-02  
    4    -108.8086421323      2.95e-03  
    5    -108.8114179116      3.08e-04  
    6    -108.8114426186      5.07e-05  
    7    -108.8114431908      2.80e-06  
    8    -108.8114431936      5.30e-07  
    9    -108.8114431937      3.08e-08  
   10    -108.8114431937      2.25e-09  Convergence criterion met
 ---------------------------------------
 SCF time:   CPU 2.96s  wall 1.00s 
 SCF   energy in the final basis set =     -108.8114431937
 Total energy in the final basis set =     -108.8114431937


 ------------------------------------------------------------------------------

   CCMAN2: suite of methods based on coupled cluster
           and equation of motion theories.

   Components:
   * libvmm-1.3-trunk
     by Evgeny Epifanovsky, Ilya Kaliman.
   * libtensor-2.5-trunk
     by Evgeny Epifanovsky, Michael Wormit, Dmitry Zuev, Sam Manzer, 
        Ilya Kaliman.
   * libcc-2.5-trunk
     by Evgeny Epifanovsky, Arik Landau, Tomasz Kus, Kirill Khistyaev, 
        Dmitry Zuev, Prashant Manohar, Xintian Feng, Anna Krylov, 
        Matthew Goldey, Alec White, Thomas Jagau, Kaushik Nanda, 
        Anastasia Gunina, Alexander Kunitsa, Joonho Lee.

   CCMAN original authors:
   Anna I. Krylov, C. David Sherrill, Steven R. Gwaltney,
   Edward F. C. Byrd (2000)
   Sergey V. Levchenko, Lyudmila V. Slipchenko, Tao Wang,
   Ana-Maria C. Cristian (2003)
   Piotr A. Pieniazek, C. Melania Oana, Evgeny Epifanovsky (2007)
   Prashant Manohar (2009)

 ------------------------------------------------------------------------------


 Allocating and initializing 1808MB of RAM...
 Calculation will run on 16 cores.


 Alpha MOs, Restricted
 -- Occupied --                  
-15.712 -15.708  -1.495  -0.770  -0.617  -0.607  -0.607
  1 Ag    1 B1u   2 Ag    2 B1u   3 Ag    1 B3u   1 B2u                        
 -- Virtual --                   
  0.173   0.173   0.427   0.521   0.521   0.669   0.669   0.716
  1 B2g   1 B3g   4 Ag    5 Ag    1 B1g   2 B2g   2 B3g   3 B1u                
  1.019   1.104   1.104   1.302   1.302   1.334   1.420   1.420
  4 B1u   2 B3u   2 B2u   1 Au    5 B1u   6 Ag    3 B2u   3 B3u                
  1.472   1.472   1.900   2.041   2.041   2.555   4.528  12.256
  4 B3u   4 B2u   6 B1u   3 B2g   3 B3g   7 Ag    7 B1u   5 B3u                
 12.256  14.306  25.564  42.976  42.976  43.126  43.306  43.306
  5 B2u   8 B1u   8 Ag    4 B2g   4 B3g   9 Ag    2 B1g  10 Ag                 
 43.830  43.830  44.290  44.290
  5 B2g   5 B3g   3 B1g  11 Ag                                                 

 Beta MOs, Restricted
 -- Occupied --                  
-15.712 -15.708  -1.495  -0.770  -0.617  -0.607  -0.607
  1 Ag    1 B1u   2 Ag    2 B1u   3 Ag    1 B3u   1 B2u                        
 -- Virtual --                   
  0.173   0.173   0.427   0.521   0.521   0.669   0.669   0.716
  1 B2g   1 B3g   4 Ag    5 Ag    1 B1g   2 B2g   2 B3g   3 B1u                
  1.019   1.104   1.104   1.302   1.302   1.334   1.420   1.420
  4 B1u   2 B3u   2 B2u   1 Au    5 B1u   6 Ag    3 B2u   3 B3u                
  1.472   1.472   1.900   2.041   2.041   2.555   4.528  12.256
  4 B3u   4 B2u   6 B1u   3 B2g   3 B3g   7 Ag    7 B1u   5 B3u                
 12.256  14.306  25.564  42.976  42.976  43.126  43.306  43.306
  5 B2u   8 B1u   8 Ag    4 B2g   4 B3g   9 Ag    2 B1g  10 Ag                 
 43.830  43.830  44.290  44.290
  5 B2g   5 B3g   3 B1g  11 Ag                                                 

 Occupation and symmetry of molecular orbitals

 Point group: D2h (8 irreducible representations).

                           Ag   B1g  B2g  B3g  Au   B1u  B2u  B3u   All 
 ------------------------------------------------------------------------
 All molecular orbitals:
  - Alpha                  11   3    5    5    1    8    5    5     43  
  - Beta                   11   3    5    5    1    8    5    5     43  
 ------------------------------------------------------------------------
 Alpha orbitals:
  - Frozen occupied        1    0    0    0    0    1    0    0     2   
  - Active occupied        2    0    0    0    0    1    1    1     5   
  - Active virtual         8    3    5    5    1    6    4    4     36  
  - Frozen virtual         0    0    0    0    0    0    0    0     0   
 ------------------------------------------------------------------------
 Beta orbitals:
  - Frozen occupied        1    0    0    0    0    1    0    0     2   
  - Active occupied        2    0    0    0    0    1    1    1     5   
  - Active virtual         8    3    5    5    1    6    4    4     36  
  - Frozen virtual         0    0    0    0    0    0    0    0     0   
 ------------------------------------------------------------------------

 Import integrals:   CPU 0.00 s  wall 0.00 s

 Import integrals:   CPU 1.09 s  wall 0.17 s

 MP2 amplitudes:   CPU 1.05 s  wall 0.91 s

Running a double precision version
           CCSD T amplitudes will be solved using DIIS.

           Start     Size      MaxIter   EConv     TConv     
           3         7         100       1.00e-06  1.00e-04  
 ------------------------------------------------------------------------------
           Energy (a.u.)   Ediff      Tdiff       Comment
 ------------------------------------------------------------------------------
          -109.06951121                           
     1    -109.05318978   1.63e-02   5.02e-01     
     2    -109.06421178   1.10e-02   8.00e-02     
     3    -109.06383298   3.79e-04   2.56e-02     
     4    -109.06490916   1.08e-03   8.17e-03     Switched to DIIS steps.
     5    -109.06525795   3.49e-04   7.09e-03     
     6    -109.06526930   1.13e-05   1.32e-03     
     7    -109.06526988   5.74e-07   1.68e-04     
     8    -109.06526945   4.23e-07   2.34e-05     
 ------------------------------------------------------------------------------
          -109.06526945                           CCSD T converged.

End of double precision
 SCF energy                 = -108.81144319
 MP2 energy                 = -109.06951121
 CCSD correlation energy    =   -0.25382626
 CCSD total energy          = -109.06526945

 CCSD  T1^2 = 0.0023  T2^2 = 0.1004  Leading amplitudes:

 Amplitude    Orbitals with energies
  0.0196       1 (B3u) A                 ->    2 (B3u) A                  
              -0.6072                          1.1041                     
  0.0196       1 (B3u) B                 ->    2 (B3u) B                  
              -0.6072                          1.1041                     
  0.0196       1 (B2u) A                 ->    2 (B2u) A                  
              -0.6072                          1.1041                     
  0.0196       1 (B2u) B                 ->    2 (B2u) B                  
              -0.6072                          1.1041                     

 Amplitude    Orbitals with energies
 -0.1017       1 (B3u) A     1 (B3u) B   ->    1 (B2g) A     1 (B2g) B    
              -0.6072       -0.6072            0.1731        0.1731       
  0.1017       1 (B3u) A     1 (B3u) B   ->    1 (B2g) B     1 (B2g) A    
              -0.6072       -0.6072            0.1731        0.1731       
  0.1017       1 (B3u) B     1 (B3u) A   ->    1 (B2g) A     1 (B2g) B    
              -0.6072       -0.6072            0.1731        0.1731       
 -0.1017       1 (B3u) B     1 (B3u) A   ->    1 (B2g) B     1 (B2g) A    
              -0.6072       -0.6072            0.1731        0.1731       
 -0.1017       1 (B2u) A     1 (B2u) B   ->    1 (B3g) A     1 (B3g) B    
              -0.6072       -0.6072            0.1731        0.1731       
  0.1017       1 (B2u) A     1 (B2u) B   ->    1 (B3g) B     1 (B3g) A    
              -0.6072       -0.6072            0.1731        0.1731       
  0.1017       1 (B2u) B     1 (B2u) A   ->    1 (B3g) A     1 (B3g) B    
              -0.6072       -0.6072            0.1731        0.1731       
 -0.1017       1 (B2u) B     1 (B2u) A   ->    1 (B3g) B     1 (B3g) A    
              -0.6072       -0.6072            0.1731        0.1731       

 Computing CCSD intermediates for later calculations in double precision
 Finished.

Running a double precision version
           CCSD Lambda amplitudes will be solved using DIIS.
           Start     Size      MaxIter   EConv     LConv     
           3         7         100       1.00e-06  1.00e-04  
 ------------------------------------------------------------------------------
            Enorm      Ldiff       Comment
 ------------------------------------------------------------------------------
     1     2.60e-02   1.65e-02     
     2     5.45e-03   2.93e-03     
     3     1.38e-03   4.64e-04     
     4     3.99e-04   3.61e-04     Switched to DIIS steps.
     5     1.24e-04   5.32e-05     
     6     3.54e-05   3.47e-05     
     7     9.22e-06   9.05e-06     
     8     1.92e-06   1.78e-06     
     9     3.64e-07   2.78e-07     
 ------------------------------------------------------------------------------
                                   CCSD Lambda converged.

 CCSD calculation:   CPU 50.04 s  wall 7.81 s

        Solving for EOMIP-CCSD B2g transitions.

Warning! Not enough singles to form guess subspace. Doubles guess vectors will be generated.
In case of poor EOM convergence, reduce requested IP_STATES.

Running a double precision version
      EOMIP-CCSD/MP2 right amplitudes will be solved using Davidson.
        Amplitudes will be solved using standard  algorithm.
     Hard-coded thresholds: 
     LinDepThresh=1.00e-15  NormThresh=1.00e-06  ReorthogonThresh=1.00e-02

      Roots     MaxVec    MaxIter   Precond   Conv      Shift    
      3         120       60        1         1.00e-05  0.00e+00  
 ------------------------------------------------------------------------------
      Iter ConvRoots NVecs ResNorm Current eigenvalues (eV)
 ------------------------------------------------------------------------------
      0    0      3     1.70e-02   51.4974   73.1894   103.1698   
      1    0      6     9.22e-01   51.0213   72.6570   75.9901   
      2    0      9     1.94e-01   34.3825   50.6906   54.2486   
      3    0      12    7.76e-02   28.0555   33.3424   43.1794   
      4    0      15    1.07e-02   27.3285   30.4415   40.0435   
      5    0      18    6.99e-02   27.2977   30.1118   37.7317   
      6    0      21    2.56e-02   27.2961   28.4877   30.9823   
      7    1      24    2.96e-03   27.2957*  28.0980   30.7644   
      8    1      26    1.14e-02   27.2957*  27.5919   28.1231   
      9    1      28    4.40e-04   27.1811   27.2957*  28.1006   
      10   1      30    4.93e-05   27.1648   27.2957*  28.0998   
      11   1      32    2.89e-05   27.1621   27.2957*  28.0993   
      12   3      34    2.37e-06   27.1618*  27.2957*  28.0990*  

     Davidson procedure converged

 EOMIP transition 1/B2g
 Total energy = -108.06709327 a.u.  Excitation energy = 27.1618 eV.
 R1^2 = 0.0000  R2^2 = 1.0000  Res^2 = 4.19e-06
 Conv-d = yes

 Amplitude    Transitions between orbitals
  0.5497       1 (B3u) A     1 (B2u) B   ->    1 (B3g) B    
 -0.5497       1 (B2u) B     1 (B3u) A   ->    1 (B3g) B    
  0.5495       1 (B2u) A     1 (B3u) A   ->    1 (B3g) A    
 -0.5495       1 (B3u) A     1 (B2u) A   ->    1 (B3g) A    
 -0.5495       1 (B2u) A     1 (B3u) B   ->    1 (B3g) B    
  0.5495       1 (B3u) B     1 (B2u) A   ->    1 (B3g) B    
 -0.1654       1 (B3u) A     1 (B2u) B   ->    2 (B3g) B    
  0.1654       1 (B2u) B     1 (B3u) A   ->    2 (B3g) B    
 -0.1652       1 (B2u) A     1 (B3u) A   ->    2 (B3g) A    
  0.1652       1 (B3u) A     1 (B2u) A   ->    2 (B3g) A    
  0.1652       1 (B2u) A     1 (B3u) B   ->    2 (B3g) B    
 -0.1652       1 (B3u) B     1 (B2u) A   ->    2 (B3g) B    

              Summary of significant orbitals:

               Number  Type             Irrep      Energy
               7       Occ  Alpha       1 (B2u)     -0.6072
               6       Occ  Alpha       1 (B3u)     -0.6072
               7       Occ  Beta        1 (B2u)     -0.6072
               6       Occ  Beta        1 (B3u)     -0.6072
               9       Vir  Alpha       1 (B3g)      0.1731
               14      Vir  Alpha       2 (B3g)      0.6685
               9       Vir  Beta        1 (B3g)      0.1731
               14      Vir  Beta        2 (B3g)      0.6685


 EOMIP transition 2/B2g
 Total energy = -108.06217091 a.u.  Excitation energy = 27.2957 eV.
 R1^2 = 0.0000  R2^2 = 1.0000  Res^2 = 1.83e-07
 Conv-d = yes

 Amplitude    Transitions between orbitals
 -0.8606       3 (Ag) A      3 (Ag) B    ->    1 (B2g) B    
  0.8606       3 (Ag) B      3 (Ag) A    ->    1 (B2g) B    
  0.4195       2 (B1u) A     2 (B1u) B   ->    1 (B2g) B    
 -0.4195       2 (B1u) B     2 (B1u) A   ->    1 (B2g) B    
  0.2380       3 (Ag) A      3 (Ag) B    ->    2 (B2g) B    
 -0.2380       3 (Ag) B      3 (Ag) A    ->    2 (B2g) B    
 -0.1088       2 (B1u) A     2 (B1u) B   ->    2 (B2g) B    
  0.1088       2 (B1u) B     2 (B1u) A   ->    2 (B2g) B    

              Summary of significant orbitals:

               Number  Type             Irrep      Energy
               5       Occ  Alpha       3 (Ag)     -0.6170
               4       Occ  Alpha       2 (B1u)     -0.7697
               5       Occ  Beta        3 (Ag)     -0.6170
               4       Occ  Beta        2 (B1u)     -0.7697
               8       Vir  Beta        1 (B2g)      0.1731
               13      Vir  Beta        2 (B2g)      0.6685


 EOMIP transition 3/B2g
 Total energy = -108.03265057 a.u.  Excitation energy = 28.0990 eV.
 R1^2 = 0.0000  R2^2 = 1.0000  Res^2 = 2.75e-06
 Conv-d = yes

 Amplitude    Transitions between orbitals
  0.5762       1 (B2u) A     1 (B3u) B   ->    1 (B3g) B    
 -0.5762       1 (B3u) B     1 (B2u) A   ->    1 (B3g) B    
  0.5705       1 (B3u) A     1 (B3u) B   ->    1 (B2g) B    
 -0.5705       1 (B3u) B     1 (B3u) A   ->    1 (B2g) B    
  0.4721       1 (B2u) A     1 (B3u) A   ->    1 (B3g) A    
 -0.4721       1 (B3u) A     1 (B2u) A   ->    1 (B3g) A    
 -0.1727       1 (B3u) A     1 (B3u) B   ->    2 (B2g) B    
  0.1727       1 (B3u) B     1 (B3u) A   ->    2 (B2g) B    
 -0.1725       1 (B2u) A     1 (B3u) B   ->    2 (B3g) B    
  0.1725       1 (B3u) B     1 (B2u) A   ->    2 (B3g) B    
 -0.1394       1 (B2u) A     1 (B3u) A   ->    2 (B3g) A    
  0.1394       1 (B3u) A     1 (B2u) A   ->    2 (B3g) A    
 -0.1092       1 (B2u) A     1 (B2u) B   ->    1 (B2g) B    
  0.1092       1 (B2u) B     1 (B2u) A   ->    1 (B2g) B    
  0.1041       1 (B3u) A     1 (B2u) B   ->    1 (B3g) B    
 -0.1041       1 (B2u) B     1 (B3u) A   ->    1 (B3g) B    

              Summary of significant orbitals:

               Number  Type             Irrep      Energy
               7       Occ  Alpha       1 (B2u)     -0.6072
               6       Occ  Alpha       1 (B3u)     -0.6072
               7       Occ  Beta        1 (B2u)     -0.6072
               6       Occ  Beta        1 (B3u)     -0.6072
               9       Vir  Alpha       1 (B3g)      0.1731
               14      Vir  Alpha       2 (B3g)      0.6685
               8       Vir  Beta        1 (B2g)      0.1731
               13      Vir  Beta        2 (B2g)      0.6685
               9       Vir  Beta        1 (B3g)      0.1731
               14      Vir  Beta        2 (B3g)      0.6685


Running a double precision version
      EOMIP-CCSD/MP2 left amplitudes will be solved using Davidson.
        Amplitudes will be solved using MOM  algorithm.
     Hard-coded thresholds: 
     LinDepThresh=1.00e-15  NormThresh=1.00e-06  ReorthogonThresh=1.00e-02

      Roots     MaxVec    MaxIter   Precond   Conv      Shift    
      3         120       60        1         1.00e-05  0.00e+00  
 ------------------------------------------------------------------------------
      Iter ConvRoots NVecs ResNorm Current eigenvalues (eV)
 ------------------------------------------------------------------------------
      0    0      3     1.12e-04   27.1618   27.2957   28.0990   
      1    0      6     3.36e-04   27.1617   27.2957   28.0990   
      2    2      9     2.51e-05   27.1617*  27.2957*  28.0990   
      3    2      10    5.56e-06   27.1617*  27.2957   28.0990*  
      4    3      11    2.29e-06   27.1617*  27.2957*  28.0990*  

     Davidson procedure converged

 Excited state properties for  EOMIP-CCSD transition 1/B2g
 Dipole moment (a.u.): 0.000000 (X 0.000000, Y 0.000000, Z 0.000000)
 R-squared (a.u.): 35.534963 (XX 5.898412, YY 6.644760, ZZ 22.991791)
 Gauge origin (a.u.): (0.000000, 0.000000, 0.000000)
 Angular momentum (a.u.) against gauge origin: 
 (X 0.000000i, Y 0.000000i, Z 0.000000i)
 Traces of the OPDMs: Tr(AA) 6.000000, Tr(BB) 7.000000

State OPDM analysis using libwa module will be excecuted
 NOs (alpha)
   Occupation of frontier NOs:
      0.3339   0.3360
   Number of electrons:  6.000000
 NOs (beta)
   Occupation of frontier NOs:
      0.6629   0.6672
   Number of electrons:  7.000000
 NOs (spin-traced)
   Occupation of frontier NOs:
      1.0011   1.0038
   Number of electrons: 13.000000
   Number of unpaired electrons: n_u =  3.00000, n_u,nl =  2.99999
   NO participation ratio (PR_NO):  3.021110
 
 Mulliken Population Analysis
 Atom      Charge (e)        Spin (e)
 ------------------------------------
 1  N        0.413889        0.509991
 2  N        0.413889        0.509991
 3 GH        0.172221       -0.019981
 ------------------------------------
 Sum:        1.000000        1.000000
 
 Multipole moment analysis of the density matrix
   Molecular charge:                      1.000000
   Number of electrons:                   13.000000
     Center of electronic charge [Ang]: [ -0.000000,   0.000000,  -0.000000]
   Total nuclear charge:                  14.000000
     Center of nuclear charge [Ang]:    [  0.000000,   0.000000,   0.000000]
   Dipole moment [D]:                     0.000000
     Cartesian components [D]:          [  0.000000,  -0.000000,   0.000000]
   RMS size of the density [Ang]:         0.874898
     Cartesian components [Ang]:        [  0.356449,   0.378329,   0.703746]
 

 Excited state properties for  EOMIP-CCSD transition 2/B2g
 Dipole moment (a.u.): 0.000000 (X 0.000000, Y 0.000000, Z 0.000000)
 R-squared (a.u.): 33.166408 (XX 7.624310, YY 6.821916, ZZ 18.720181)
 Gauge origin (a.u.): (0.000000, 0.000000, 0.000000)
 Angular momentum (a.u.) against gauge origin: 
 (X 0.000000i, Y 0.000000i, Z 0.000000i)
 Traces of the OPDMs: Tr(AA) 6.000000, Tr(BB) 7.000000

State OPDM analysis using libwa module will be excecuted
 NOs (alpha)
   Occupation of frontier NOs:
      0.1945   0.8061
   Number of electrons:  6.000000
 NOs (beta)
   Occupation of frontier NOs:
      0.1942   0.8097
   Number of electrons:  7.000000
 NOs (spin-traced)
   Occupation of frontier NOs:
      0.9917   1.6158
   Number of electrons: 13.000000
   Number of unpaired electrons: n_u =  1.77806, n_u,nl =  1.77810
   NO participation ratio (PR_NO):  2.465387
 
 Mulliken Population Analysis
 Atom      Charge (e)        Spin (e)
 ------------------------------------
 1  N        0.462410        0.505922
 2  N        0.462410        0.505922
 3 GH        0.075180       -0.011845
 ------------------------------------
 Sum:        1.000000        1.000000
 
 Multipole moment analysis of the density matrix
   Molecular charge:                      1.000000
   Number of electrons:                   13.000000
     Center of electronic charge [Ang]: [  0.000000,  -0.000000,  -0.000000]
   Total nuclear charge:                  14.000000
     Center of nuclear charge [Ang]:    [  0.000000,   0.000000,   0.000000]
   Dipole moment [D]:                     0.000000
     Cartesian components [D]:          [ -0.000000,   0.000000,   0.000000]
   RMS size of the density [Ang]:         0.845237
     Cartesian components [Ang]:        [  0.405256,   0.383339,   0.635016]
 

 Excited state properties for  EOMIP-CCSD transition 3/B2g
 Dipole moment (a.u.): 0.000000 (X 0.000000, Y 0.000000, Z 0.000000)
 R-squared (a.u.): 35.530908 (XX 5.826697, YY 6.716158, ZZ 22.988052)
 Gauge origin (a.u.): (0.000000, 0.000000, 0.000000)
 Angular momentum (a.u.) against gauge origin: 
 (X 0.000000i, Y 0.000000i, Z 0.000000i)
 Traces of the OPDMs: Tr(AA) 6.000000, Tr(BB) 7.000000

State OPDM analysis using libwa module will be excecuted
 NOs (alpha)
   Occupation of frontier NOs:
      0.3708   0.3849
   Number of electrons:  6.000000
 NOs (beta)
   Occupation of frontier NOs:
      0.3676   0.3758
   Number of electrons:  7.000000
 NOs (spin-traced)
   Occupation of frontier NOs:
      0.6653   1.3468
   Number of electrons: 13.000000
   Number of unpaired electrons: n_u =  2.33052, n_u,nl =  2.66243
   NO participation ratio (PR_NO):  3.890136
 
 Mulliken Population Analysis
 Atom      Charge (e)        Spin (e)
 ------------------------------------
 1  N        0.413853        0.514384
 2  N        0.413853        0.514384
 3 GH        0.172294       -0.028768
 ------------------------------------
 Sum:        1.000000        1.000000
 
 Multipole moment analysis of the density matrix
   Molecular charge:                      1.000000
   Number of electrons:                   13.000000
     Center of electronic charge [Ang]: [ -0.000000,   0.000000,  -0.000000]
   Total nuclear charge:                  14.000000
     Center of nuclear charge [Ang]:    [  0.000000,   0.000000,   0.000000]
   Dipole moment [D]:                     0.000000
     Cartesian components [D]:          [  0.000000,  -0.000000,   0.000000]
   RMS size of the density [Ang]:         0.874848
     Cartesian components [Ang]:        [  0.354275,   0.380356,   0.703689]
 

 EOMIP-CCSD calculation:   CPU 17.08 s  wall 4.09 s


 Start computing the transition properties

 ------------------------------------------------------------------------------
 State A: eomip_ccsd/a: 1/B2g
 State B: eomip_ccsd/a: 2/B2g
 Transition dipole moment (a.u.):
   A->B: 0.000000 (X 0.000000, Y 0.000000, Z 0.000000)
   B->A: 0.000000 (X 0.000000, Y 0.000000, Z 0.000000)
 Oscillator strength (a.u.): -0.000000
 Transition angular momentum against gauge origin (a.u.):
   A->B:  (X 0.000000i, Y 0.000000i, Z 0.000000i)
   B->A:  (X 0.000000i, Y 0.000000i, Z 0.000000i)
 Norm of one-particle transition density matrix:
   A->B: 0.017366;   B->A: 0.014360
   ||gamma^AB||*||gamma^BA||: 0.000249

State analysis of transition OPDM (A->B) using libwa module will be excecuted
 
 CT numbers (Mulliken)
   omega =     0.0003 (alpha:     0.0002, beta:     0.0002)
   <Phe> =     0.9992 (alpha:     0.9992, beta:     0.9992)
 
 Exciton analysis of the transition density matrix
 Total:
   Trans. dipole moment [D]:             0.000000
     Cartesian components [D]:         [  0.000000,  -0.000000,  -0.000000]
   <r_h> [Ang]:                        [  0.000000,   0.000000,  -0.000000]
   <r_e> [Ang]:                        [  0.000000,   0.000000,  -0.000000]
   |<r_e - r_h>| [Ang]:                  0.000000
   Hole size [Ang]:                      0.966887
     Cartesian components [Ang]:       [  0.522304,   0.478748,   0.657929]
   Electron size [Ang]:                  0.957844
     Cartesian components [Ang]:       [  0.513009,   0.472408,   0.656596]
   RMS electron-hole separation [Ang]:   1.371801
     Cartesian components [Ang]:       [  0.739102,   0.678407,   0.935591]
   Covariance(r_h, r_e) [Ang^2]:        -0.014751
   Correlation coefficient:             -0.015928
   Center-of-mass size [Ang]:            0.675062
     Cartesian components [Ang]:       [  0.362521,   0.333355,   0.461694]
 
 Alpha spin:
   Trans. dipole moment [D]:             0.000000
     Cartesian components [D]:         [  0.000000,  -0.000000,  -0.000000]
   <r_h> [Ang]:                        [  0.000000,   0.000000,  -0.000000]
   <r_e> [Ang]:                        [  0.000000,   0.000000,  -0.000000]
   |<r_e - r_h>| [Ang]:                  0.000000
   Hole size [Ang]:                      0.966895
     Cartesian components [Ang]:       [  0.522216,   0.478781,   0.657986]
   Electron size [Ang]:                  0.957305
     Cartesian components [Ang]:       [  0.512768,   0.471930,   0.656341]
   RMS electron-hole separation [Ang]:   1.371586
     Cartesian components [Ang]:       [  0.738959,   0.678238,   0.935510]
   Covariance(r_h, r_e) [Ang^2]:        -0.014964
   Correlation coefficient:             -0.016167
   Center-of-mass size [Ang]:            0.674794
     Cartesian components [Ang]:       [  0.362360,   0.333126,   0.461595]
 
 Beta spin:
   Trans. dipole moment [D]:             0.000000
     Cartesian components [D]:         [  0.000000,  -0.000000,  -0.000000]
   <r_h> [Ang]:                        [  0.000000,   0.000000,  -0.000000]
   <r_e> [Ang]:                        [  0.000000,   0.000000,  -0.000000]
   |<r_e - r_h>| [Ang]:                  0.000000
   Hole size [Ang]:                      0.966879
     Cartesian components [Ang]:       [  0.522392,   0.478713,   0.657872]
   Electron size [Ang]:                  0.958387
     Cartesian components [Ang]:       [  0.513251,   0.472889,   0.656851]
   RMS electron-hole separation [Ang]:   1.372018
     Cartesian components [Ang]:       [  0.739245,   0.678577,   0.935673]
   Covariance(r_h, r_e) [Ang^2]:        -0.014537
   Correlation coefficient:             -0.015688
   Center-of-mass size [Ang]:            0.675330
     Cartesian components [Ang]:       [  0.362683,   0.333584,   0.461794]

 ------------------------------------------------------------------------------
 State A: eomip_ccsd/a: 1/B2g
 State B: eomip_ccsd/a: 3/B2g
 Transition dipole moment (a.u.):
   A->B: 0.000000 (X 0.000000, Y 0.000000, Z 0.000000)
   B->A: 0.000000 (X 0.000000, Y 0.000000, Z 0.000000)
 Oscillator strength (a.u.): -0.000000
 Transition angular momentum against gauge origin (a.u.):
   A->B:  (X 0.000000i, Y 0.000000i, Z 0.000000i)
   B->A:  (X 0.000000i, Y 0.000000i, Z 0.000000i)
 Norm of one-particle transition density matrix:
   A->B: 0.643533;   B->A: 0.649840
   ||gamma^AB||*||gamma^BA||: 0.418194

State analysis of transition OPDM (A->B) using libwa module will be excecuted
 
 CT numbers (Mulliken)
   omega =     0.4141 (alpha:     0.2071, beta:     0.2071)
   <Phe> =     0.9997 (alpha:     0.9997, beta:     0.9997)
 
 Exciton analysis of the transition density matrix
 Total:
   Trans. dipole moment [D]:             0.000000
     Cartesian components [D]:         [  0.000000,  -0.000000,   0.000000]
   <r_h> [Ang]:                        [  0.000000,   0.000000,  -0.000000]
   <r_e> [Ang]:                        [  0.000000,   0.000000,  -0.000000]
   |<r_e - r_h>| [Ang]:                  0.000000
   Hole size [Ang]:                      0.964532
     Cartesian components [Ang]:       [  0.547981,   0.466064,   0.642514]
   Electron size [Ang]:                  0.958663
     Cartesian components [Ang]:       [  0.538927,   0.462525,   0.643943]
   RMS electron-hole separation [Ang]:   1.319767
     Cartesian components [Ang]:       [  0.769031,   0.656427,   0.848221]
   Covariance(r_h, r_e) [Ang^2]:         0.053786
   Correlation coefficient:              0.058169
   Center-of-mass size [Ang]:            0.699451
     Cartesian components [Ang]:       [  0.384071,   0.328403,   0.483605]
 
 Alpha spin:
   Trans. dipole moment [D]:             0.000000
     Cartesian components [D]:         [  0.000000,  -0.000000,   0.000000]
   <r_h> [Ang]:                        [  0.000000,   0.000000,  -0.000000]
   <r_e> [Ang]:                        [  0.000000,   0.000000,  -0.000000]
   |<r_e - r_h>| [Ang]:                  0.000000
   Hole size [Ang]:                      0.964531
     Cartesian components [Ang]:       [  0.547940,   0.466080,   0.642535]
   Electron size [Ang]:                  0.958611
     Cartesian components [Ang]:       [  0.538874,   0.462494,   0.643932]
   RMS electron-hole separation [Ang]:   1.319706
     Cartesian components [Ang]:       [  0.768964,   0.656417,   0.848194]
   Covariance(r_h, r_e) [Ang^2]:         0.053816
   Correlation coefficient:              0.058204
   Center-of-mass size [Ang]:            0.699444
     Cartesian components [Ang]:       [  0.384038,   0.328398,   0.483623]
 
 Beta spin:
   Trans. dipole moment [D]:             0.000000
     Cartesian components [D]:         [  0.000000,  -0.000000,   0.000000]
   <r_h> [Ang]:                        [  0.000000,   0.000000,  -0.000000]
   <r_e> [Ang]:                        [  0.000000,   0.000000,  -0.000000]
   |<r_e - r_h>| [Ang]:                  0.000000
   Hole size [Ang]:                      0.964534
     Cartesian components [Ang]:       [  0.548022,   0.466047,   0.642493]
   Electron size [Ang]:                  0.958714
     Cartesian components [Ang]:       [  0.538980,   0.462556,   0.643953]
   RMS electron-hole separation [Ang]:   1.319828
     Cartesian components [Ang]:       [  0.769098,   0.656437,   0.848248]
   Covariance(r_h, r_e) [Ang^2]:         0.053756
   Correlation coefficient:              0.058133
   Center-of-mass size [Ang]:            0.699459
     Cartesian components [Ang]:       [  0.384104,   0.328407,   0.483586]

 ------------------------------------------------------------------------------
 State A: eomip_ccsd/a: 2/B2g
 State B: eomip_ccsd/a: 3/B2g
 Transition dipole moment (a.u.):
   A->B: 0.000000 (X 0.000000, Y 0.000000, Z 0.000000)
   B->A: 0.000000 (X 0.000000, Y 0.000000, Z 0.000000)
 Oscillator strength (a.u.): 0.000000
 Transition angular momentum against gauge origin (a.u.):
   A->B:  (X 0.000000i, Y 0.000000i, Z 0.000000i)
   B->A:  (X 0.000000i, Y 0.000000i, Z 0.000000i)
 Norm of one-particle transition density matrix:
   A->B: 0.045299;   B->A: 0.054049
   ||gamma^AB||*||gamma^BA||: 0.002448

State analysis of transition OPDM (A->B) using libwa module will be excecuted
 
 CT numbers (Mulliken)
   omega =     0.0021 (alpha:     0.0010, beta:     0.0011)
   <Phe> =     0.9733 (alpha:     0.9771, beta:     0.9699)
 
 Exciton analysis of the transition density matrix
 Total:
   Trans. dipole moment [D]:             0.000000
     Cartesian components [D]:         [  0.000000,  -0.000000,  -0.000000]
   <r_h> [Ang]:                        [  0.000000,  -0.000000,  -0.000000]
   <r_e> [Ang]:                        [  0.000000,  -0.000000,  -0.000000]
   |<r_e - r_h>| [Ang]:                  0.000000
   Hole size [Ang]:                      1.027050
     Cartesian components [Ang]:       [  0.522484,   0.430440,   0.772375]
   Electron size [Ang]:                  1.036379
     Cartesian components [Ang]:       [  0.517984,   0.430046,   0.787931]
   RMS electron-hole separation [Ang]:   1.386359
     Cartesian components [Ang]:       [  0.777251,   0.544052,   1.010882]
   Covariance(r_h, r_e) [Ang^2]:         0.103460
   Correlation coefficient:              0.097200
   Center-of-mass size [Ang]:            0.764172
     Cartesian components [Ang]:       [  0.345859,   0.333333,   0.594331]
 
 Alpha spin:
   Trans. dipole moment [D]:             0.000000
     Cartesian components [D]:         [  0.000000,  -0.000000,  -0.000000]
   <r_h> [Ang]:                        [  0.000000,  -0.000000,  -0.000000]
   <r_e> [Ang]:                        [  0.000000,  -0.000000,  -0.000000]
   |<r_e - r_h>| [Ang]:                  0.000000
   Hole size [Ang]:                      1.025407
     Cartesian components [Ang]:       [  0.502048,   0.460034,   0.766666]
   Electron size [Ang]:                  1.034070
     Cartesian components [Ang]:       [  0.498946,   0.458678,   0.781004]
   RMS electron-hole separation [Ang]:   1.426656
     Cartesian components [Ang]:       [  0.700449,   0.586119,   1.095984]
   Covariance(r_h, r_e) [Ang^2]:         0.042707
   Correlation coefficient:              0.040276
   Center-of-mass size [Ang]:            0.742659
     Cartesian components [Ang]:       [  0.357550,   0.353729,   0.546421]
 
 Beta spin:
   Trans. dipole moment [D]:             0.000000
     Cartesian components [D]:         [  0.000000,  -0.000000,  -0.000000]
   <r_h> [Ang]:                        [  0.000000,  -0.000000,  -0.000000]
   <r_e> [Ang]:                        [  0.000000,  -0.000000,  -0.000000]
   |<r_e - r_h>| [Ang]:                  0.000000
   Hole size [Ang]:                      1.028537
     Cartesian components [Ang]:       [  0.540349,   0.401720,   0.777517]
   Electron size [Ang]:                  1.038470
     Cartesian components [Ang]:       [  0.534663,   0.402322,   0.794161]
   RMS electron-hole separation [Ang]:   1.348775
     Cartesian components [Ang]:       [  0.840856,   0.502868,   0.926973]
   Covariance(r_h, r_e) [Ang^2]:         0.158557
   Correlation coefficient:              0.148447
   Center-of-mass size [Ang]:            0.783170
     Cartesian components [Ang]:       [  0.334904,   0.313691,   0.634659]


 All requested transition properties have been computed

 Transition Properties:   CPU 1.67 s  wall 0.44 s

 Total ccman2 time:   CPU 72.43 s  wall 13.89 s


 --------------------------------------------------------------
             Orbital Energies (a.u.) and Symmetries
 --------------------------------------------------------------

 Alpha MOs, Restricted
 -- Occupied --                  
-15.712 -15.708  -1.495  -0.770  -0.617  -0.607  -0.607
  1 Ag    1 B1u   2 Ag    2 B1u   3 Ag    1 B3u   1 B2u                        
 -- Virtual --                   
  0.173   0.173   0.427   0.521   0.521   0.669   0.669   0.716
  1 B2g   1 B3g   4 Ag    5 Ag    1 B1g   2 B2g   2 B3g   3 B1u                
  1.019   1.104   1.104   1.302   1.302   1.334   1.420   1.420
  4 B1u   2 B3u   2 B2u   1 Au    5 B1u   6 Ag    3 B2u   3 B3u                
  1.472   1.472   1.900   2.041   2.041   2.555   4.528  12.256
  4 B3u   4 B2u   6 B1u   3 B2g   3 B3g   7 Ag    7 B1u   5 B3u                
 12.256  14.306  25.564  42.976  42.976  43.126  43.306  43.306
  5 B2u   8 B1u   8 Ag    4 B2g   4 B3g   9 Ag    2 B1g  10 Ag                 
 43.830  43.830  44.290  44.290
  5 B2g   5 B3g   3 B1g  11 Ag                                                 

 Beta MOs, Restricted
 -- Occupied --                  
-15.712 -15.708  -1.495  -0.770  -0.617  -0.607  -0.607
  1 Ag    1 B1u   2 Ag    2 B1u   3 Ag    1 B3u   1 B2u                        
 -- Virtual --                   
  0.173   0.173   0.427   0.521   0.521   0.669   0.669   0.716
  1 B2g   1 B3g   4 Ag    5 Ag    1 B1g   2 B2g   2 B3g   3 B1u                
  1.019   1.104   1.104   1.302   1.302   1.334   1.420   1.420
  4 B1u   2 B3u   2 B2u   1 Au    5 B1u   6 Ag    3 B2u   3 B3u                
  1.472   1.472   1.900   2.041   2.041   2.555   4.528  12.256
  4 B3u   4 B2u   6 B1u   3 B2g   3 B3g   7 Ag    7 B1u   5 B3u                
 12.256  14.306  25.564  42.976  42.976  43.126  43.306  43.306
  5 B2u   8 B1u   8 Ag    4 B2g   4 B3g   9 Ag    2 B1g  10 Ag                 
 43.830  43.830  44.290  44.290
  5 B2g   5 B3g   3 B1g  11 Ag                                                 
 --------------------------------------------------------------

          Ground-State Mulliken Net Atomic Charges

     Atom                 Charge (a.u.)
  ----------------------------------------
      1 N                    -0.075972
      2 N                    -0.075972
      3 GH                    0.151945
  ----------------------------------------
  Sum of atomic charges =     0.000000

 -----------------------------------------------------------------
                    Cartesian Multipole Moments
 -----------------------------------------------------------------
    Charge (ESU x 10^10)
                -0.0000
    Dipole Moment (Debye)
         X      -0.0000      Y       0.0000      Z       0.0000
       Tot       0.0000
    Quadrupole Moments (Debye-Ang)
        XX     -10.2323     XY      -0.0000     YY     -10.2323
        XZ       0.0000     YZ       0.0000     ZZ     -11.3181
    Octopole Moments (Debye-Ang^2)
       XXX      -0.0000    XXY       0.0000    XYY      -0.0000
       YYY       0.0000    XXZ       0.0000    XYZ      -0.0000
       YYZ       0.0000    XZZ      -0.0000    YZZ       0.0000
       ZZZ       0.0000
    Hexadecapole Moments (Debye-Ang^3)
      XXXX      -7.8784   XXXY      -0.0000   XXYY      -2.6261
      XYYY      -0.0000   YYYY      -7.8784   XXXZ       0.0000
      XXYZ      -0.0000   XYYZ       0.0000   YYYZ       0.0000
      XXZZ      -5.4469   XYZZ       0.0000   YYZZ      -5.4469
      XZZZ       0.0000   YZZZ       0.0000   ZZZZ     -27.6742
 -----------------------------------------------------------------
Archival summary:
1\1\node11\SP\ProcedureUnspecified\BasisUnspecified\2h1\gayverjr\SatAug810:49:302020SatAug810:49:302020\0\\#,ProcedureUnspecified,BasisUnspecified,\\0,1\N\Gh,1,1.039\N,2,1.039,1,180\\HF=-108.811443\\@

 Total job time:  16.35s(wall), 78.93s(cpu) 
 Sat Aug  8 10:49:30 2020

        *************************************************************
        *                                                           *
        *  Thank you very much for using Q-Chem.  Have a nice day.  *
        *                                                           *
        *************************************************************


