Jobname.Temp
SP        U                             non-standard        
Number of atoms                            I                3
Charge                                     I               -1
Multiplicity                               I                2
Number of electrons                        I               15
Number of alpha electrons                  I                8
Number of beta electrons                   I                7
Atomic numbers                             I   N=           3
           7           7           0
Current cartesian coordinates              R   N=           9
  0.00000000E+00  0.00000000E+00  1.03699997E+00  0.00000000E+00  0.00000000E+00
 -1.03699997E+00  0.00000000E+00  0.00000000E+00  0.00000000E+00
Nuclear charges                            R   N=           3
  7.00000000E+00  7.00000000E+00  0.00000000E+00
Number of basis functions                  I               43
Number of contracted shells                I               15
Number of primitive shells                 I               34
Highest angular momentum                   I                4
Largest degree of contraction              I                6
Shell types                                I   N=          15
           0           0           0           1           1           0
           0           0           1           1           0           1
          -2          -3          -4
Number of primitives per shell             I   N=          15
           6           2           1           2           1           6
           2           1           2           1           6           1
           1           1           1
Shell to atom map                          I   N=          15
           1           1           1           1           1           2
           2           2           2           2           3           3
           3           3           3
Primitive exponents                        R   N=          34
  4.15011000E+03  6.20084000E+02  1.41688000E+02  4.03367000E+01  1.30267000E+01
  4.47003000E+00  5.42522000E+00  1.14915000E+00  2.83205000E-01  5.42522000E+00
  1.14915000E+00  2.83205000E-01  4.15011000E+03  6.20084000E+02  1.41688000E+02
  4.03367000E+01  1.30267000E+01  4.47003000E+00  5.42522000E+00  1.14915000E+00
  2.83205000E-01  5.42522000E+00  1.14915000E+00  2.83205000E-01  4.15011000E+03
  6.20084000E+02  1.41688000E+02  4.03367000E+01  1.30267000E+01  4.47003000E+00
  5.42522000E+00  1.87000000E-01  3.49200000E-01  8.34500000E+00
Contraction coefficients                   R   N=          34
  1.84540991E-03  1.41644993E-02  6.86324967E-02  2.28573989E-01  4.66161978E-01
  3.65671983E-01 -4.13300077E-01  1.22441727E+00  1.00000000E+00  2.37972016E-01
  8.58953059E-01  1.00000000E+00  1.84540991E-03  1.41644993E-02  6.86324967E-02
  2.28573989E-01  4.66161978E-01  3.65671983E-01 -4.13300077E-01  1.22441727E+00
  1.00000000E+00  2.37972016E-01  8.58953059E-01  1.00000000E+00  1.84540991E-03
  1.41644993E-02  6.86324967E-02  2.28573989E-01  4.66161978E-01  3.65671983E-01
  1.00000000E+00  1.00000000E+00  1.00000000E+00  1.00000000E+00
Coordinates of each shell                  R   N=          45
  0.00000000E+00  0.00000000E+00  1.03699997E+00  0.00000000E+00  0.00000000E+00
  1.03699997E+00  0.00000000E+00  0.00000000E+00  1.03699997E+00  0.00000000E+00
  0.00000000E+00  1.03699997E+00  0.00000000E+00  0.00000000E+00  1.03699997E+00
  0.00000000E+00  0.00000000E+00 -1.03699997E+00  0.00000000E+00  0.00000000E+00
 -1.03699997E+00  0.00000000E+00  0.00000000E+00 -1.03699997E+00  0.00000000E+00
  0.00000000E+00 -1.03699997E+00  0.00000000E+00  0.00000000E+00 -1.03699997E+00
  0.00000000E+00  0.00000000E+00  0.00000000E+00  0.00000000E+00  0.00000000E+00
  0.00000000E+00  0.00000000E+00  0.00000000E+00  0.00000000E+00  0.00000000E+00
  0.00000000E+00  0.00000000E+00  0.00000000E+00  0.00000000E+00  0.00000000E+00
Overlap Matrix                             R   N=         946
  1.00000000E+00  2.40200747E-01  1.00000000E+00  2.08869845E-01  7.52192071E-01
  1.00000000E+00  0.00000000E+00  0.00000000E+00  0.00000000E+00  1.00000000E+00
  0.00000000E+00  0.00000000E+00  0.00000000E+00  0.00000000E+00  1.00000000E+00
  1.38694149E-16  0.00000000E+00  0.00000000E+00  0.00000000E+00  0.00000000E+00
  1.00000000E+00  0.00000000E+00  0.00000000E+00  0.00000000E+00  5.16001040E-01
  0.00000000E+00  0.00000000E+00  1.00000000E+00  0.00000000E+00  0.00000000E+00
  0.00000000E+00  0.00000000E+00  5.16001040E-01  0.00000000E+00  0.00000000E+00
  1.00000000E+00 -1.70821127E-17  0.00000000E+00  0.00000000E+00  0.00000000E+00
  0.00000000E+00  5.16001040E-01  0.00000000E+00  0.00000000E+00  1.00000000E+00
  9.10263787E-06  9.28656405E-03  6.50297657E-02  0.00000000E+00  0.00000000E+00
 -2.42761553E-02  0.00000000E+00  0.00000000E+00 -1.37463002E-01  1.00000000E+00
  9.28656405E-03  1.15279039E-01  2.90406929E-01  0.00000000E+00  0.00000000E+00
 -1.88396949E-01  0.00000000E+00  0.00000000E+00 -5.02156560E-01  2.40200747E-01
  1.00000000E+00  6.50297657E-02  2.90406929E-01  5.43840259E-01  0.00000000E+00
  0.00000000E+00 -2.12289465E-01  0.00000000E+00  0.00000000E+00 -6.00247764E-01
  2.08869845E-01  7.52192071E-01  1.00000000E+00  0.00000000E+00  0.00000000E+00
  0.00000000E+00  6.57914185E-02  0.00000000E+00  0.00000000E+00  1.92339838E-01
  0.00000000E+00  0.00000000E+00  0.00000000E+00  0.00000000E+00  0.00000000E+00
  1.00000000E+00  0.00000000E+00  0.00000000E+00  0.00000000E+00  0.00000000E+00
  6.57914185E-02  0.00000000E+00  0.00000000E+00  1.92339838E-01  0.00000000E+00
  0.00000000E+00  0.00000000E+00  0.00000000E+00  0.00000000E+00  1.00000000E+00
  2.42761553E-02  1.88396949E-01  2.12289465E-01  0.00000000E+00  0.00000000E+00
 -2.70612273E-01  0.00000000E+00  0.00000000E+00 -1.86975256E-01 -1.38694149E-16
  0.00000000E+00  0.00000000E+00  0.00000000E+00  0.00000000E+00  1.00000000E+00
  0.00000000E+00  0.00000000E+00  0.00000000E+00  1.92339838E-01  0.00000000E+00
  0.00000000E+00  5.43840259E-01  0.00000000E+00  0.00000000E+00  0.00000000E+00
  0.00000000E+00  0.00000000E+00  5.16001040E-01  0.00000000E+00  0.00000000E+00
  1.00000000E+00  0.00000000E+00  0.00000000E+00  0.00000000E+00  0.00000000E+00
  1.92339838E-01  0.00000000E+00  0.00000000E+00  5.43840259E-01  0.00000000E+00
  0.00000000E+00  0.00000000E+00  0.00000000E+00  0.00000000E+00  5.16001040E-01
  0.00000000E+00  0.00000000E+00  1.00000000E+00  1.37463002E-01  5.02156560E-01
  6.00247764E-01  0.00000000E+00  0.00000000E+00 -1.86975256E-01  0.00000000E+00
  0.00000000E+00 -1.18665636E-01  1.70821127E-17  0.00000000E+00  0.00000000E+00
  0.00000000E+00  0.00000000E+00  5.16001040E-01  0.00000000E+00  0.00000000E+00
  1.00000000E+00  2.11672678E-02  1.99350058E-01  1.56012330E-01  0.00000000E+00
  0.00000000E+00 -3.03309831E-01  0.00000000E+00  0.00000000E+00 -1.64960504E-01
  2.11672678E-02  1.99350058E-01  1.56012330E-01  0.00000000E+00  0.00000000E+00
  3.03309831E-01  0.00000000E+00  0.00000000E+00  1.64960504E-01  1.00000000E+00
  0.00000000E+00  0.00000000E+00  0.00000000E+00  1.68657702E-01  0.00000000E+00
  0.00000000E+00  9.30528377E-02  0.00000000E+00  0.00000000E+00  0.00000000E+00
  0.00000000E+00  0.00000000E+00  1.68657702E-01  0.00000000E+00  0.00000000E+00
  9.30528377E-02  0.00000000E+00  0.00000000E+00  0.00000000E+00  1.00000000E+00
  0.00000000E+00  0.00000000E+00  0.00000000E+00  0.00000000E+00  1.68657702E-01
  0.00000000E+00  0.00000000E+00  9.30528377E-02  0.00000000E+00  0.00000000E+00
  0.00000000E+00  0.00000000E+00  0.00000000E+00  1.68657702E-01  0.00000000E+00
  0.00000000E+00  9.30528377E-02  0.00000000E+00  0.00000000E+00  0.00000000E+00
  1.00000000E+00  8.25359140E-02  1.92861706E-01  5.13521726E-02  0.00000000E+00
  0.00000000E+00 -2.24168710E-01  0.00000000E+00  0.00000000E+00  3.91862985E-02
 -8.25359140E-02 -1.92861706E-01 -5.13521726E-02  0.00000000E+00  0.00000000E+00
 -2.24168710E-01  0.00000000E+00  0.00000000E+00  3.91862985E-02  0.00000000E+00
  0.00000000E+00  0.00000000E+00  1.00000000E+00  5.63913674E-02  1.72739148E-01
  1.44542463E-01  0.00000000E+00  0.00000000E+00  2.25659261E-01  0.00000000E+00
  0.00000000E+00  4.60390395E-01  5.63913674E-02  1.72739148E-01  1.44542463E-01
  0.00000000E+00  0.00000000E+00 -2.25659261E-01  0.00000000E+00  0.00000000E+00
 -4.60390395E-01  0.00000000E+00  0.00000000E+00  0.00000000E+00  0.00000000E+00
  1.00000000E+00  0.00000000E+00  0.00000000E+00  0.00000000E+00  2.36633610E-01
  0.00000000E+00  0.00000000E+00  4.53656229E-01  0.00000000E+00  0.00000000E+00
  0.00000000E+00  0.00000000E+00  0.00000000E+00 -2.36633610E-01  0.00000000E+00
  0.00000000E+00 -4.53656229E-01  0.00000000E+00  0.00000000E+00  0.00000000E+00
  0.00000000E+00  0.00000000E+00  0.00000000E+00  0.00000000E+00  1.00000000E+00
  0.00000000E+00  0.00000000E+00  0.00000000E+00  0.00000000E+00  2.36633610E-01
  0.00000000E+00  0.00000000E+00  4.53656229E-01  0.00000000E+00  0.00000000E+00
  0.00000000E+00  0.00000000E+00  0.00000000E+00 -2.36633610E-01  0.00000000E+00
  0.00000000E+00 -4.53656229E-01  0.00000000E+00  0.00000000E+00  0.00000000E+00
  0.00000000E+00  0.00000000E+00  0.00000000E+00  0.00000000E+00  1.00000000E+00
  0.00000000E+00  0.00000000E+00  0.00000000E+00  0.00000000E+00  0.00000000E+00
  0.00000000E+00  0.00000000E+00  0.00000000E+00  0.00000000E+00  0.00000000E+00
  0.00000000E+00  0.00000000E+00  0.00000000E+00  0.00000000E+00  0.00000000E+00
  0.00000000E+00  0.00000000E+00  0.00000000E+00  0.00000000E+00  0.00000000E+00
  0.00000000E+00  0.00000000E+00  0.00000000E+00  0.00000000E+00  0.00000000E+00
  1.00000000E+00  0.00000000E+00  0.00000000E+00  0.00000000E+00  0.00000000E+00
  0.00000000E+00  0.00000000E+00  0.00000000E+00  0.00000000E+00  0.00000000E+00
  0.00000000E+00  0.00000000E+00  0.00000000E+00  0.00000000E+00  0.00000000E+00
  0.00000000E+00  0.00000000E+00  0.00000000E+00  0.00000000E+00  0.00000000E+00
  0.00000000E+00  0.00000000E+00  0.00000000E+00  0.00000000E+00  0.00000000E+00
  0.00000000E+00  0.00000000E+00  1.00000000E+00  6.86484107E-02  1.15370528E-01
  3.57856405E-02  0.00000000E+00  0.00000000E+00  2.54738506E-01  0.00000000E+00
  0.00000000E+00  1.72726827E-01 -6.86484107E-02 -1.15370528E-01 -3.57856405E-02
  0.00000000E+00  0.00000000E+00  2.54738506E-01  0.00000000E+00  0.00000000E+00
  1.72726827E-01  0.00000000E+00  0.00000000E+00  0.00000000E+00  3.12250226E-17
  0.00000000E+00  0.00000000E+00  0.00000000E+00  0.00000000E+00  0.00000000E+00
  1.00000000E+00  0.00000000E+00  0.00000000E+00  0.00000000E+00  2.58594229E-01
  0.00000000E+00  0.00000000E+00  1.58838296E-01  0.00000000E+00  0.00000000E+00
  0.00000000E+00  0.00000000E+00  0.00000000E+00  2.58594229E-01  0.00000000E+00
  0.00000000E+00  1.58838296E-01  0.00000000E+00  0.00000000E+00  0.00000000E+00
 -1.90819582E-17  0.00000000E+00  0.00000000E+00  0.00000000E+00  0.00000000E+00
  0.00000000E+00  0.00000000E+00  0.00000000E+00  0.00000000E+00  1.00000000E+00
  0.00000000E+00  0.00000000E+00  0.00000000E+00  0.00000000E+00  2.58594229E-01
  0.00000000E+00  0.00000000E+00  1.58838296E-01  0.00000000E+00  0.00000000E+00
  0.00000000E+00  0.00000000E+00  0.00000000E+00  2.58594229E-01  0.00000000E+00
  0.00000000E+00  1.58838296E-01  0.00000000E+00  0.00000000E+00  0.00000000E+00
 -1.90819582E-17  0.00000000E+00  0.00000000E+00  0.00000000E+00  0.00000000E+00
  0.00000000E+00  0.00000000E+00  0.00000000E+00  0.00000000E+00  1.00000000E+00
  0.00000000E+00  0.00000000E+00  0.00000000E+00  0.00000000E+00  0.00000000E+00
  0.00000000E+00  0.00000000E+00  0.00000000E+00  0.00000000E+00  0.00000000E+00
  0.00000000E+00  0.00000000E+00  0.00000000E+00  0.00000000E+00  0.00000000E+00
  0.00000000E+00  0.00000000E+00  0.00000000E+00  0.00000000E+00  0.00000000E+00
  0.00000000E+00  0.00000000E+00  0.00000000E+00  0.00000000E+00  0.00000000E+00
  0.00000000E+00  0.00000000E+00  0.00000000E+00  0.00000000E+00  0.00000000E+00
  1.00000000E+00  0.00000000E+00  0.00000000E+00  0.00000000E+00  0.00000000E+00
  0.00000000E+00  0.00000000E+00  0.00000000E+00  0.00000000E+00  0.00000000E+00
  0.00000000E+00  0.00000000E+00  0.00000000E+00  0.00000000E+00  0.00000000E+00
  0.00000000E+00  0.00000000E+00  0.00000000E+00  0.00000000E+00  0.00000000E+00
  0.00000000E+00  0.00000000E+00  0.00000000E+00  0.00000000E+00  0.00000000E+00
  0.00000000E+00  0.00000000E+00  0.00000000E+00  0.00000000E+00  0.00000000E+00
  0.00000000E+00  0.00000000E+00  1.00000000E+00  0.00000000E+00  0.00000000E+00
  0.00000000E+00 -2.77555756E-17  0.00000000E+00  0.00000000E+00  1.11022302E-16
  0.00000000E+00  0.00000000E+00  0.00000000E+00  0.00000000E+00  0.00000000E+00
 -2.77555756E-17  0.00000000E+00  0.00000000E+00  1.11022302E-16  0.00000000E+00
  0.00000000E+00  0.00000000E+00  2.60208521E-17  0.00000000E+00  0.00000000E+00
  0.00000000E+00  0.00000000E+00  0.00000000E+00  0.00000000E+00  0.00000000E+00
  0.00000000E+00 -3.88578059E-16  0.00000000E+00  0.00000000E+00  0.00000000E+00
  1.00000000E+00  0.00000000E+00  0.00000000E+00  0.00000000E+00  0.00000000E+00
  2.77555756E-17  0.00000000E+00  0.00000000E+00 -1.11022302E-16  0.00000000E+00
  0.00000000E+00  0.00000000E+00  0.00000000E+00  0.00000000E+00  2.77555756E-17
  0.00000000E+00  0.00000000E+00 -1.11022302E-16  0.00000000E+00  0.00000000E+00
  0.00000000E+00 -2.60208521E-17  0.00000000E+00  0.00000000E+00  0.00000000E+00
  0.00000000E+00  0.00000000E+00  0.00000000E+00  0.00000000E+00  0.00000000E+00
  3.88578059E-16  0.00000000E+00  0.00000000E+00  0.00000000E+00  1.00000000E+00
  6.62315099E-02 -2.93771008E-02  2.31260572E-05  0.00000000E+00  0.00000000E+00
 -1.90319048E-02  0.00000000E+00  0.00000000E+00  1.42935621E-04  6.62315099E-02
 -2.93771008E-02  2.31260572E-05  0.00000000E+00  0.00000000E+00  1.90319048E-02
  0.00000000E+00  0.00000000E+00 -1.42935621E-04 -1.11022302E-16  0.00000000E+00
  0.00000000E+00  0.00000000E+00 -1.04083409E-16  0.00000000E+00  0.00000000E+00
  0.00000000E+00  0.00000000E+00  0.00000000E+00  0.00000000E+00  0.00000000E+00
  0.00000000E+00  0.00000000E+00  0.00000000E+00  0.00000000E+00  1.00000000E+00
  0.00000000E+00  0.00000000E+00  0.00000000E+00  3.83013740E-02  0.00000000E+00
  0.00000000E+00  1.32517244E-04  0.00000000E+00  0.00000000E+00  0.00000000E+00
  0.00000000E+00  0.00000000E+00 -3.83013740E-02  0.00000000E+00  0.00000000E+00
 -1.32517244E-04  0.00000000E+00  0.00000000E+00  0.00000000E+00  0.00000000E+00
  0.00000000E+00  0.00000000E+00  0.00000000E+00 -3.46944695E-18  0.00000000E+00
  0.00000000E+00  0.00000000E+00  0.00000000E+00  0.00000000E+00  0.00000000E+00
  0.00000000E+00  0.00000000E+00  0.00000000E+00  0.00000000E+00  0.00000000E+00
  1.00000000E+00  0.00000000E+00  0.00000000E+00  0.00000000E+00  0.00000000E+00
  3.83013740E-02  0.00000000E+00  0.00000000E+00  1.32517244E-04  0.00000000E+00
  0.00000000E+00  0.00000000E+00  0.00000000E+00  0.00000000E+00 -3.83013740E-02
  0.00000000E+00  0.00000000E+00 -1.32517244E-04  0.00000000E+00  0.00000000E+00
  0.00000000E+00  0.00000000E+00  0.00000000E+00  0.00000000E+00  0.00000000E+00
 -3.46944695E-18  0.00000000E+00  0.00000000E+00  0.00000000E+00  0.00000000E+00
  0.00000000E+00  0.00000000E+00  0.00000000E+00  0.00000000E+00  0.00000000E+00
  0.00000000E+00  0.00000000E+00  1.00000000E+00  0.00000000E+00  0.00000000E+00
  0.00000000E+00  0.00000000E+00  0.00000000E+00  0.00000000E+00  0.00000000E+00
  0.00000000E+00  0.00000000E+00  0.00000000E+00  0.00000000E+00  0.00000000E+00
  0.00000000E+00  0.00000000E+00  0.00000000E+00  0.00000000E+00  0.00000000E+00
  0.00000000E+00  0.00000000E+00  0.00000000E+00  0.00000000E+00  0.00000000E+00
  0.00000000E+00  0.00000000E+00  0.00000000E+00  1.56125113E-16  0.00000000E+00
  0.00000000E+00  0.00000000E+00  0.00000000E+00  0.00000000E+00  0.00000000E+00
  0.00000000E+00  0.00000000E+00  1.11022302E-16  0.00000000E+00  0.00000000E+00
  1.00000000E+00  0.00000000E+00  0.00000000E+00  0.00000000E+00  0.00000000E+00
  0.00000000E+00  0.00000000E+00  0.00000000E+00  0.00000000E+00  0.00000000E+00
  0.00000000E+00  0.00000000E+00  0.00000000E+00  0.00000000E+00  0.00000000E+00
  0.00000000E+00  0.00000000E+00  0.00000000E+00  0.00000000E+00  0.00000000E+00
  0.00000000E+00  0.00000000E+00  0.00000000E+00  0.00000000E+00  0.00000000E+00
  0.00000000E+00  0.00000000E+00  3.46944695E-18  0.00000000E+00  0.00000000E+00
  0.00000000E+00  0.00000000E+00  0.00000000E+00  0.00000000E+00  0.00000000E+00
  0.00000000E+00  0.00000000E+00  0.00000000E+00  0.00000000E+00  1.00000000E+00
  0.00000000E+00  0.00000000E+00  0.00000000E+00  2.77555756E-17  0.00000000E+00
  0.00000000E+00 -1.73472348E-18  0.00000000E+00  0.00000000E+00  0.00000000E+00
  0.00000000E+00  0.00000000E+00 -2.77555756E-17  0.00000000E+00  0.00000000E+00
  1.73472348E-18  0.00000000E+00  0.00000000E+00  0.00000000E+00  0.00000000E+00
  0.00000000E+00  0.00000000E+00  0.00000000E+00 -3.46944695E-18  0.00000000E+00
  0.00000000E+00  0.00000000E+00  0.00000000E+00  0.00000000E+00  0.00000000E+00
  0.00000000E+00  0.00000000E+00  0.00000000E+00  0.00000000E+00  0.00000000E+00
 -2.77555756E-16  0.00000000E+00  0.00000000E+00  0.00000000E+00  1.00000000E+00
  0.00000000E+00  0.00000000E+00  0.00000000E+00  0.00000000E+00 -2.77555756E-17
  0.00000000E+00  0.00000000E+00  1.73472348E-18  0.00000000E+00  0.00000000E+00
  0.00000000E+00  0.00000000E+00  0.00000000E+00  2.77555756E-17  0.00000000E+00
  0.00000000E+00 -1.73472348E-18  0.00000000E+00  0.00000000E+00  0.00000000E+00
  0.00000000E+00  0.00000000E+00  0.00000000E+00  0.00000000E+00  3.46944695E-18
  0.00000000E+00  0.00000000E+00  0.00000000E+00  0.00000000E+00  0.00000000E+00
  0.00000000E+00  0.00000000E+00  0.00000000E+00  0.00000000E+00  0.00000000E+00
  0.00000000E+00  2.77555756E-16  0.00000000E+00  0.00000000E+00  0.00000000E+00
  1.00000000E+00  1.73472348E-18  0.00000000E+00 -5.55111512E-17  0.00000000E+00
  0.00000000E+00  0.00000000E+00  0.00000000E+00  0.00000000E+00  0.00000000E+00
  1.73472348E-18  0.00000000E+00 -5.55111512E-17  0.00000000E+00  0.00000000E+00
  0.00000000E+00  0.00000000E+00  0.00000000E+00  0.00000000E+00  0.00000000E+00
  0.00000000E+00  0.00000000E+00  0.00000000E+00  1.23165367E-16  0.00000000E+00
  0.00000000E+00  0.00000000E+00  0.00000000E+00  0.00000000E+00  0.00000000E+00
  0.00000000E+00  0.00000000E+00  0.00000000E+00  0.00000000E+00  0.00000000E+00
  0.00000000E+00  0.00000000E+00  0.00000000E+00  4.16333634E-17  0.00000000E+00
  0.00000000E+00  0.00000000E+00  1.00000000E+00  0.00000000E+00  0.00000000E+00
  0.00000000E+00  0.00000000E+00  0.00000000E+00  0.00000000E+00  0.00000000E+00
  0.00000000E+00  0.00000000E+00  0.00000000E+00  0.00000000E+00  0.00000000E+00
  0.00000000E+00  0.00000000E+00  0.00000000E+00  0.00000000E+00  0.00000000E+00
  0.00000000E+00  0.00000000E+00  0.00000000E+00  0.00000000E+00  0.00000000E+00
  0.00000000E+00  0.00000000E+00  0.00000000E+00  0.00000000E+00  0.00000000E+00
  0.00000000E+00  0.00000000E+00  0.00000000E+00  0.00000000E+00  0.00000000E+00
  0.00000000E+00  0.00000000E+00  0.00000000E+00  0.00000000E+00  0.00000000E+00
  0.00000000E+00  0.00000000E+00  0.00000000E+00  0.00000000E+00  0.00000000E+00
  1.00000000E+00
Core Hamiltonian Matrix                    R   N=         946
 -2.78221045E+01 -6.35788045E+00 -1.01338218E+01 -5.64894878E+00 -8.03615074E+00
 -8.80277307E+00  0.00000000E+00  0.00000000E+00  0.00000000E+00 -9.02014537E+00
  0.00000000E+00  0.00000000E+00  0.00000000E+00  0.00000000E+00 -9.02014537E+00
  1.47492336E-01  8.12632334E-01  7.84224826E-01  0.00000000E+00  0.00000000E+00
 -9.44039772E+00  0.00000000E+00  0.00000000E+00  0.00000000E+00 -4.45162876E+00
  0.00000000E+00  0.00000000E+00 -5.97102066E+00  0.00000000E+00  0.00000000E+00
  0.00000000E+00  0.00000000E+00 -4.45162876E+00  0.00000000E+00  0.00000000E+00
 -5.97102066E+00  2.67473506E-02  5.05014239E-01  1.25169150E+00  0.00000000E+00
  0.00000000E+00 -4.84517941E+00  0.00000000E+00  0.00000000E+00 -7.15211802E+00
 -4.62288199E-04 -2.63901724E-01 -1.77247743E+00  0.00000000E+00  0.00000000E+00
  6.78182140E-01  0.00000000E+00  0.00000000E+00  3.72947525E+00 -2.78221045E+01
 -2.63901724E-01 -1.52658208E+00 -3.34592006E+00  0.00000000E+00  0.00000000E+00
  2.35174448E+00  0.00000000E+00  0.00000000E+00  5.51737483E+00 -6.35788045E+00
 -1.01338218E+01 -1.77247743E+00 -3.34592006E+00 -5.22462003E+00  0.00000000E+00
  0.00000000E+00  2.50737750E+00  0.00000000E+00  0.00000000E+00  5.59652822E+00
 -5.64894878E+00 -8.03615074E+00 -8.80277307E+00  0.00000000E+00  0.00000000E+00
  0.00000000E+00 -7.41389751E-01  0.00000000E+00  0.00000000E+00 -1.78900466E+00
  0.00000000E+00  0.00000000E+00  0.00000000E+00  0.00000000E+00  0.00000000E+00
 -9.02014537E+00  0.00000000E+00  0.00000000E+00  0.00000000E+00  0.00000000E+00
 -7.41389751E-01  0.00000000E+00  0.00000000E+00 -1.78900466E+00  0.00000000E+00
  0.00000000E+00  0.00000000E+00  0.00000000E+00  0.00000000E+00 -9.02014537E+00
 -6.78182140E-01 -2.35174448E+00 -2.50737750E+00  0.00000000E+00  0.00000000E+00
  3.14625278E+00  0.00000000E+00  0.00000000E+00  2.20744091E+00 -1.47492336E-01
 -8.12632334E-01 -7.84224826E-01  0.00000000E+00  0.00000000E+00 -9.44039772E+00
  0.00000000E+00  0.00000000E+00  0.00000000E+00 -1.78900466E+00  0.00000000E+00
  0.00000000E+00 -3.55566776E+00  0.00000000E+00  0.00000000E+00  0.00000000E+00
  0.00000000E+00  0.00000000E+00 -4.45162876E+00  0.00000000E+00  0.00000000E+00
 -5.97102066E+00  0.00000000E+00  0.00000000E+00  0.00000000E+00  0.00000000E+00
 -1.78900466E+00  0.00000000E+00  0.00000000E+00 -3.55566776E+00  0.00000000E+00
  0.00000000E+00  0.00000000E+00  0.00000000E+00  0.00000000E+00 -4.45162876E+00
  0.00000000E+00  0.00000000E+00 -5.97102066E+00 -3.72947525E+00 -5.51737483E+00
 -5.59652822E+00  0.00000000E+00  0.00000000E+00  2.20744091E+00  0.00000000E+00
  0.00000000E+00  1.40525268E+00 -2.67473506E-02 -5.05014239E-01 -1.25169150E+00
  0.00000000E+00  0.00000000E+00 -4.84517941E+00  0.00000000E+00  0.00000000E+00
 -7.15211802E+00 -6.13097393E-01 -2.39468052E+00 -2.00651113E+00  0.00000000E+00
  0.00000000E+00  3.42986487E+00  0.00000000E+00  0.00000000E+00  2.01667898E+00
 -6.13097393E-01 -2.39468052E+00 -2.00651113E+00  0.00000000E+00  0.00000000E+00
 -3.42986487E+00  0.00000000E+00  0.00000000E+00 -2.01667898E+00  8.92379706E+00
  0.00000000E+00  0.00000000E+00  0.00000000E+00 -1.78515352E+00  0.00000000E+00
  0.00000000E+00 -1.04490086E+00  0.00000000E+00  0.00000000E+00  0.00000000E+00
  0.00000000E+00  0.00000000E+00 -1.78515352E+00  0.00000000E+00  0.00000000E+00
 -1.04490086E+00  0.00000000E+00  0.00000000E+00  0.00000000E+00  6.41080675E-01
  0.00000000E+00  0.00000000E+00  0.00000000E+00  0.00000000E+00 -1.78515352E+00
  0.00000000E+00  0.00000000E+00 -1.04490086E+00  0.00000000E+00  0.00000000E+00
  0.00000000E+00  0.00000000E+00  0.00000000E+00 -1.78515352E+00  0.00000000E+00
  0.00000000E+00 -1.04490086E+00  0.00000000E+00  0.00000000E+00  0.00000000E+00
  6.41080675E-01 -2.24197092E+00 -2.04193122E+00 -7.41766458E-01  0.00000000E+00
  0.00000000E+00  2.16121287E+00  0.00000000E+00  0.00000000E+00 -6.01886430E-01
  2.24197092E+00  2.04193122E+00  7.41766458E-01  0.00000000E+00  0.00000000E+00
  2.16121287E+00  0.00000000E+00  0.00000000E+00 -6.01886430E-01  0.00000000E+00
  0.00000000E+00  0.00000000E+00 -1.09395853E+00 -1.51251261E+00 -1.69238277E+00
 -1.36965690E+00  0.00000000E+00  0.00000000E+00 -1.78934417E+00  0.00000000E+00
  0.00000000E+00 -2.09686091E+00 -1.51251261E+00 -1.69238277E+00 -1.36965690E+00
  0.00000000E+00  0.00000000E+00  1.78934417E+00  0.00000000E+00  0.00000000E+00
  2.09686091E+00 -1.68815591E-02  0.00000000E+00  0.00000000E+00  0.00000000E+00
 -4.86281730E+00  0.00000000E+00  0.00000000E+00  0.00000000E+00 -1.95436779E+00
  0.00000000E+00  0.00000000E+00 -2.26127773E+00  0.00000000E+00  0.00000000E+00
  0.00000000E+00  0.00000000E+00  0.00000000E+00  1.95436779E+00  0.00000000E+00
  0.00000000E+00  2.26127773E+00  0.00000000E+00  0.00000000E+00  0.00000000E+00
  0.00000000E+00  0.00000000E+00  0.00000000E+00  0.00000000E+00 -4.57709302E+00
  0.00000000E+00  0.00000000E+00  0.00000000E+00  0.00000000E+00 -1.95436779E+00
  0.00000000E+00  0.00000000E+00 -2.26127773E+00  0.00000000E+00  0.00000000E+00
  0.00000000E+00  0.00000000E+00  0.00000000E+00  1.95436779E+00  0.00000000E+00
  0.00000000E+00  2.26127773E+00  0.00000000E+00  0.00000000E+00  0.00000000E+00
  0.00000000E+00  0.00000000E+00  0.00000000E+00  0.00000000E+00 -4.57709302E+00
  0.00000000E+00  0.00000000E+00  0.00000000E+00  0.00000000E+00  0.00000000E+00
  0.00000000E+00  0.00000000E+00  0.00000000E+00  0.00000000E+00  0.00000000E+00
  0.00000000E+00  0.00000000E+00  0.00000000E+00  0.00000000E+00  0.00000000E+00
  0.00000000E+00  0.00000000E+00  0.00000000E+00  0.00000000E+00  0.00000000E+00
  0.00000000E+00  0.00000000E+00  0.00000000E+00  0.00000000E+00  0.00000000E+00
 -4.22065379E+00  0.00000000E+00  0.00000000E+00  0.00000000E+00  0.00000000E+00
  0.00000000E+00  0.00000000E+00  0.00000000E+00  0.00000000E+00  0.00000000E+00
  0.00000000E+00  0.00000000E+00  0.00000000E+00  0.00000000E+00  0.00000000E+00
  0.00000000E+00  0.00000000E+00  0.00000000E+00  0.00000000E+00  0.00000000E+00
  0.00000000E+00  0.00000000E+00  0.00000000E+00  0.00000000E+00  0.00000000E+00
  0.00000000E+00  0.00000000E+00 -4.22065379E+00 -1.83073310E+00 -1.19061508E+00
 -6.19031593E-01  0.00000000E+00  0.00000000E+00 -1.98654347E+00  0.00000000E+00
  0.00000000E+00 -1.31095906E+00  1.83073310E+00  1.19061508E+00  6.19031593E-01
  0.00000000E+00  0.00000000E+00 -1.98654347E+00  0.00000000E+00  0.00000000E+00
 -1.31095906E+00  0.00000000E+00  0.00000000E+00  0.00000000E+00 -6.53664989E-02
  0.00000000E+00  0.00000000E+00  0.00000000E+00  0.00000000E+00  0.00000000E+00
 -4.99496881E+00  0.00000000E+00  0.00000000E+00  0.00000000E+00 -2.04489419E+00
  0.00000000E+00  0.00000000E+00 -1.11244526E+00  0.00000000E+00  0.00000000E+00
  0.00000000E+00  0.00000000E+00  0.00000000E+00 -2.04489419E+00  0.00000000E+00
  0.00000000E+00 -1.11244526E+00  0.00000000E+00  0.00000000E+00  0.00000000E+00
 -2.36114414E-02  0.00000000E+00  0.00000000E+00  0.00000000E+00  0.00000000E+00
  0.00000000E+00  0.00000000E+00  0.00000000E+00  0.00000000E+00 -4.73031366E+00
  0.00000000E+00  0.00000000E+00  0.00000000E+00  0.00000000E+00 -2.04489419E+00
  0.00000000E+00  0.00000000E+00 -1.11244526E+00  0.00000000E+00  0.00000000E+00
  0.00000000E+00  0.00000000E+00  0.00000000E+00 -2.04489419E+00  0.00000000E+00
  0.00000000E+00 -1.11244526E+00  0.00000000E+00  0.00000000E+00  0.00000000E+00
 -2.36114414E-02  0.00000000E+00  0.00000000E+00  0.00000000E+00  0.00000000E+00
  0.00000000E+00  0.00000000E+00  0.00000000E+00  0.00000000E+00 -4.73031366E+00
  0.00000000E+00  0.00000000E+00  0.00000000E+00  0.00000000E+00  0.00000000E+00
  0.00000000E+00  0.00000000E+00  0.00000000E+00  0.00000000E+00  0.00000000E+00
  0.00000000E+00  0.00000000E+00  0.00000000E+00  0.00000000E+00  0.00000000E+00
  0.00000000E+00  0.00000000E+00  0.00000000E+00  0.00000000E+00  0.00000000E+00
  0.00000000E+00  0.00000000E+00  0.00000000E+00  0.00000000E+00  0.00000000E+00
  0.00000000E+00  0.00000000E+00  0.00000000E+00  0.00000000E+00  0.00000000E+00
 -4.36894148E+00  0.00000000E+00  0.00000000E+00  0.00000000E+00  0.00000000E+00
  0.00000000E+00  0.00000000E+00  0.00000000E+00  0.00000000E+00  0.00000000E+00
  0.00000000E+00  0.00000000E+00  0.00000000E+00  0.00000000E+00  0.00000000E+00
  0.00000000E+00  0.00000000E+00  0.00000000E+00  0.00000000E+00  0.00000000E+00
  0.00000000E+00  0.00000000E+00  0.00000000E+00  0.00000000E+00  0.00000000E+00
  0.00000000E+00  0.00000000E+00  0.00000000E+00  0.00000000E+00  0.00000000E+00
  0.00000000E+00  0.00000000E+00 -4.36894148E+00  0.00000000E+00  0.00000000E+00
  0.00000000E+00  5.55111512E-17  0.00000000E+00  0.00000000E+00 -5.55111512E-17
  0.00000000E+00  0.00000000E+00  0.00000000E+00  0.00000000E+00  0.00000000E+00
  5.55111512E-17  0.00000000E+00  0.00000000E+00 -5.55111512E-17  0.00000000E+00
  0.00000000E+00  0.00000000E+00 -1.38777878E-17  0.00000000E+00  0.00000000E+00
  0.00000000E+00  0.00000000E+00  0.00000000E+00  0.00000000E+00  0.00000000E+00
  0.00000000E+00  5.55111512E-16  0.00000000E+00  0.00000000E+00  0.00000000E+00
 -4.00712813E+00  0.00000000E+00  0.00000000E+00  0.00000000E+00  0.00000000E+00
 -5.55111512E-17  0.00000000E+00  0.00000000E+00  5.55111512E-17  0.00000000E+00
  0.00000000E+00  0.00000000E+00  0.00000000E+00  0.00000000E+00 -5.55111512E-17
  0.00000000E+00  0.00000000E+00  5.55111512E-17  0.00000000E+00  0.00000000E+00
  0.00000000E+00  1.38777878E-17  0.00000000E+00  0.00000000E+00  0.00000000E+00
  0.00000000E+00  0.00000000E+00  0.00000000E+00  0.00000000E+00  0.00000000E+00
 -2.14217868E-16  0.00000000E+00  0.00000000E+00  0.00000000E+00 -4.00712813E+00
 -1.81096098E+00 -2.34277662E-01 -2.60012112E-01  0.00000000E+00  0.00000000E+00
  1.62161695E-01  0.00000000E+00  0.00000000E+00  1.71317030E-01 -1.81096098E+00
 -2.34277662E-01 -2.60012112E-01  0.00000000E+00  0.00000000E+00 -1.62161695E-01
  0.00000000E+00  0.00000000E+00 -1.71317030E-01 -1.23159048E-01  0.00000000E+00
  0.00000000E+00  0.00000000E+00 -8.82920994E-02  0.00000000E+00  0.00000000E+00
  3.81639165E-17  0.00000000E+00  0.00000000E+00  0.00000000E+00  0.00000000E+00
  0.00000000E+00  0.00000000E+00  0.00000000E+00  0.00000000E+00  3.09333476E+01
  0.00000000E+00  0.00000000E+00  0.00000000E+00 -4.61503864E-01  0.00000000E+00
  0.00000000E+00 -4.03996937E-02  0.00000000E+00  0.00000000E+00  0.00000000E+00
  0.00000000E+00  0.00000000E+00  4.61503864E-01  0.00000000E+00  0.00000000E+00
  4.03996937E-02  0.00000000E+00  0.00000000E+00  0.00000000E+00  0.00000000E+00
  0.00000000E+00  0.00000000E+00  0.00000000E+00 -4.81200069E-02  0.00000000E+00