Jobname.Temp
SP        U                             non-standard        
Number of atoms                            I                1
Charge                                     I               -1
Multiplicity                               I                2
Number of electrons                        I                5
Number of alpha electrons                  I                3
Number of beta electrons                   I                2
Atomic numbers                             I   N=           1
           4
Current cartesian coordinates              R   N=           3
  0.00000000E+00  0.00000000E+00  0.00000000E+00
Nuclear charges                            R   N=           1
  4.00000000E+00
Number of basis functions                  I               23
Number of contracted shells                I                6
Number of primitive shells                 I               13
Highest angular momentum                   I                2
Largest degree of contraction              I                6
Shell types                                I   N=           6
           0          -1          -1          -1          -1           2
Number of primitives per shell             I   N=           6
           6           3           1           1           1           1
Shell to atom map                          I   N=           6
           1           1           1           1           1           1
Primitive exponents                        R   N=          13
  1.26458569E+03  1.89936806E+02  4.31590890E+01  1.20986627E+01  3.80632322E+00
  1.27289030E+00  3.19646310E+00  7.47813304E-01  2.19966330E-01  8.23099007E-02
  2.07000000E-02  4.00000000E-02  4.00000000E-01
Contraction coefficients                   R   N=          13
  1.94475759E-03  1.48350520E-02  7.20905463E-02  2.37154150E-01  4.69198652E-01
  3.56520228E-01 -1.12648729E-01 -2.29506408E-01  1.18691676E+00  1.00000000E+00
  1.00000000E+00  1.00000000E+00  1.00000000E+00
P(S=P) Contraction coefficients            R   N=          13
  0.00000000E+00  0.00000000E+00  0.00000000E+00  0.00000000E+00  0.00000000E+00
  0.00000000E+00  5.59801998E-02  2.61550611E-01  7.93972339E-01  1.00000000E+00
  1.00000000E+00  1.00000000E+00  0.00000000E+00
Coordinates of each shell                  R   N=          18
  0.00000000E+00  0.00000000E+00  0.00000000E+00  0.00000000E+00  0.00000000E+00
  0.00000000E+00  0.00000000E+00  0.00000000E+00  0.00000000E+00  0.00000000E+00
  0.00000000E+00  0.00000000E+00  0.00000000E+00  0.00000000E+00  0.00000000E+00
  0.00000000E+00  0.00000000E+00  0.00000000E+00
Overlap Matrix                             R   N=         276
  1.00000000E+00  1.90660796E-01  1.00000000E+00  0.00000000E+00  0.00000000E+00
  1.00000000E+00  0.00000000E+00  0.00000000E+00  0.00000000E+00  1.00000000E+00
  0.00000000E+00  0.00000000E+00  0.00000000E+00  0.00000000E+00  1.00000000E+00
  2.07895037E-01  8.71269668E-01  0.00000000E+00  0.00000000E+00  0.00000000E+00
  1.00000000E+00  0.00000000E+00  0.00000000E+00  6.69101274E-01  0.00000000E+00
  0.00000000E+00  0.00000000E+00  1.00000000E+00  0.00000000E+00  0.00000000E+00
  0.00000000E+00  6.69101274E-01  0.00000000E+00  0.00000000E+00  0.00000000E+00
  1.00000000E+00  0.00000000E+00  0.00000000E+00  0.00000000E+00  0.00000000E+00
  6.69101274E-01  0.00000000E+00  0.00000000E+00  0.00000000E+00  1.00000000E+00
  7.75196967E-02  4.48922110E-01  0.00000000E+00  0.00000000E+00  0.00000000E+00
  7.17452838E-01  0.00000000E+00  0.00000000E+00  0.00000000E+00  1.00000000E+00
  0.00000000E+00  0.00000000E+00  2.03136037E-01  0.00000000E+00  0.00000000E+00
  0.00000000E+00  5.74983784E-01  0.00000000E+00  0.00000000E+00  0.00000000E+00
  1.00000000E+00  0.00000000E+00  0.00000000E+00  0.00000000E+00  2.03136037E-01
  0.00000000E+00  0.00000000E+00  0.00000000E+00  5.74983784E-01  0.00000000E+00
  0.00000000E+00  0.00000000E+00  1.00000000E+00  0.00000000E+00  0.00000000E+00
  0.00000000E+00  0.00000000E+00  2.03136037E-01  0.00000000E+00  0.00000000E+00
  0.00000000E+00  5.74983784E-01  0.00000000E+00  0.00000000E+00  0.00000000E+00
  1.00000000E+00  1.25089897E-01  6.49142411E-01  0.00000000E+00  0.00000000E+00
  0.00000000E+00  9.08838309E-01  0.00000000E+00  0.00000000E+00  0.00000000E+00
  9.23176434E-01  0.00000000E+00  0.00000000E+00  0.00000000E+00  1.00000000E+00
  0.00000000E+00  0.00000000E+00  3.85938928E-01  0.00000000E+00  0.00000000E+00
  0.00000000E+00  8.52729017E-01  0.00000000E+00  0.00000000E+00  0.00000000E+00
  8.75268265E-01  0.00000000E+00  0.00000000E+00  0.00000000E+00  1.00000000E+00
  0.00000000E+00  0.00000000E+00  0.00000000E+00  3.85938928E-01  0.00000000E+00
  0.00000000E+00  0.00000000E+00  8.52729017E-01  0.00000000E+00  0.00000000E+00
  0.00000000E+00  8.75268265E-01  0.00000000E+00  0.00000000E+00  0.00000000E+00
  1.00000000E+00  0.00000000E+00  0.00000000E+00  0.00000000E+00  0.00000000E+00
  3.85938928E-01  0.00000000E+00  0.00000000E+00  0.00000000E+00  8.52729017E-01
  0.00000000E+00  0.00000000E+00  0.00000000E+00  8.75268265E-01  0.00000000E+00
  0.00000000E+00  0.00000000E+00  1.00000000E+00  1.02605903E-01  7.34594757E-01
  0.00000000E+00  0.00000000E+00  0.00000000E+00  6.25018630E-01  0.00000000E+00
  0.00000000E+00  0.00000000E+00  3.12367488E-01  0.00000000E+00  0.00000000E+00
  0.00000000E+00  4.57649138E-01  0.00000000E+00  0.00000000E+00  0.00000000E+00
  1.00000000E+00  1.02605903E-01  7.34594757E-01  0.00000000E+00  0.00000000E+00
  0.00000000E+00  6.25018630E-01  0.00000000E+00  0.00000000E+00  0.00000000E+00
  3.12367488E-01  0.00000000E+00  0.00000000E+00  0.00000000E+00  4.57649138E-01
  0.00000000E+00  0.00000000E+00  0.00000000E+00  3.33333333E-01  1.00000000E+00
  1.02605903E-01  7.34594757E-01  0.00000000E+00  0.00000000E+00  0.00000000E+00
  6.25018630E-01  0.00000000E+00  0.00000000E+00  0.00000000E+00  3.12367488E-01
  0.00000000E+00  0.00000000E+00  0.00000000E+00  4.57649138E-01  0.00000000E+00
  0.00000000E+00  0.00000000E+00  3.33333333E-01  3.33333333E-01  1.00000000E+00
  0.00000000E+00  0.00000000E+00  0.00000000E+00  0.00000000E+00  0.00000000E+00
  0.00000000E+00  0.00000000E+00  0.00000000E+00  0.00000000E+00  0.00000000E+00
  0.00000000E+00  0.00000000E+00  0.00000000E+00  0.00000000E+00  0.00000000E+00
  0.00000000E+00  0.00000000E+00  0.00000000E+00  0.00000000E+00  0.00000000E+00
  1.00000000E+00  0.00000000E+00  0.00000000E+00  0.00000000E+00  0.00000000E+00
  0.00000000E+00  0.00000000E+00  0.00000000E+00  0.00000000E+00  0.00000000E+00
  0.00000000E+00  0.00000000E+00  0.00000000E+00  0.00000000E+00  0.00000000E+00
  0.00000000E+00  0.00000000E+00  0.00000000E+00  0.00000000E+00  0.00000000E+00
  0.00000000E+00  0.00000000E+00  1.00000000E+00  0.00000000E+00  0.00000000E+00
  0.00000000E+00  0.00000000E+00  0.00000000E+00  0.00000000E+00  0.00000000E+00
  0.00000000E+00  0.00000000E+00  0.00000000E+00  0.00000000E+00  0.00000000E+00
  0.00000000E+00  0.00000000E+00  0.00000000E+00  0.00000000E+00  0.00000000E+00
  0.00000000E+00  0.00000000E+00  0.00000000E+00  0.00000000E+00  0.00000000E+00
  1.00000000E+00
Core Hamiltonian Matrix                    R   N=         276
 -7.94596602E+00 -1.32817366E+00 -1.97116768E+00  0.00000000E+00  0.00000000E+00
 -1.71278863E+00  0.00000000E+00  0.00000000E+00  0.00000000E+00 -1.71278863E+00
  0.00000000E+00  0.00000000E+00  0.00000000E+00  0.00000000E+00 -1.71278863E+00
 -1.52567347E+00 -1.72607939E+00  0.00000000E+00  0.00000000E+00  0.00000000E+00
 -1.70782078E+00  0.00000000E+00  0.00000000E+00 -9.91257469E-01  0.00000000E+00
  0.00000000E+00  0.00000000E+00 -1.01508233E+00  0.00000000E+00  0.00000000E+00
  0.00000000E+00 -9.91257469E-01  0.00000000E+00  0.00000000E+00  0.00000000E+00
 -1.01508233E+00  0.00000000E+00  0.00000000E+00  0.00000000E+00  0.00000000E+00
 -9.91257469E-01  0.00000000E+00  0.00000000E+00  0.00000000E+00 -1.01508233E+00
 -5.69138600E-01 -8.52677533E-01  0.00000000E+00  0.00000000E+00  0.00000000E+00
 -1.00371601E+00  0.00000000E+00  0.00000000E+00  0.00000000E+00 -8.87314783E-01
  0.00000000E+00  0.00000000E+00 -3.00913907E-01  0.00000000E+00  0.00000000E+00
  0.00000000E+00 -5.07736718E-01  0.00000000E+00  0.00000000E+00  0.00000000E+00
 -5.60493189E-01  0.00000000E+00  0.00000000E+00  0.00000000E+00 -3.00913907E-01
  0.00000000E+00  0.00000000E+00  0.00000000E+00 -5.07736718E-01  0.00000000E+00
  0.00000000E+00  0.00000000E+00 -5.60493189E-01  0.00000000E+00  0.00000000E+00
  0.00000000E+00  0.00000000E+00 -3.00913907E-01  0.00000000E+00  0.00000000E+00
  0.00000000E+00 -5.07736718E-01  0.00000000E+00  0.00000000E+00  0.00000000E+00
 -5.60493189E-01 -9.18200152E-01 -1.24706843E+00  0.00000000E+00  0.00000000E+00
  0.00000000E+00 -1.36121185E+00  0.00000000E+00  0.00000000E+00  0.00000000E+00
 -9.88804336E-01  0.00000000E+00  0.00000000E+00  0.00000000E+00 -1.21661530E+00
  0.00000000E+00  0.00000000E+00 -5.69029110E-01  0.00000000E+00  0.00000000E+00
  0.00000000E+00 -7.82586971E-01  0.00000000E+00  0.00000000E+00  0.00000000E+00
 -5.89175382E-01  0.00000000E+00  0.00000000E+00  0.00000000E+00 -7.51076865E-01
  0.00000000E+00  0.00000000E+00  0.00000000E+00 -5.69029110E-01  0.00000000E+00
  0.00000000E+00  0.00000000E+00 -7.82586971E-01  0.00000000E+00  0.00000000E+00
  0.00000000E+00 -5.89175382E-01  0.00000000E+00  0.00000000E+00  0.00000000E+00
 -7.51076865E-01  0.00000000E+00  0.00000000E+00  0.00000000E+00  0.00000000E+00
 -5.69029110E-01  0.00000000E+00  0.00000000E+00  0.00000000E+00 -7.82586971E-01
  0.00000000E+00  0.00000000E+00  0.00000000E+00 -5.89175382E-01  0.00000000E+00
  0.00000000E+00  0.00000000E+00 -7.51076865E-01 -7.25782893E-01 -1.36987787E+00
  0.00000000E+00  0.00000000E+00  0.00000000E+00 -1.19567222E+00  0.00000000E+00
  0.00000000E+00  0.00000000E+00 -5.91836132E-01  0.00000000E+00  0.00000000E+00
  0.00000000E+00 -8.66848787E-01  0.00000000E+00  0.00000000E+00  0.00000000E+00
 -1.28640642E+00 -7.25782893E-01 -1.36987787E+00  0.00000000E+00  0.00000000E+00
  0.00000000E+00 -1.19567222E+00  0.00000000E+00  0.00000000E+00  0.00000000E+00
 -5.91836132E-01  0.00000000E+00  0.00000000E+00  0.00000000E+00 -8.66848787E-01
  0.00000000E+00  0.00000000E+00  0.00000000E+00 -7.84357695E-01 -1.28640642E+00
 -7.25782893E-01 -1.36987787E+00  0.00000000E+00  0.00000000E+00  0.00000000E+00
 -1.19567222E+00  0.00000000E+00  0.00000000E+00  0.00000000E+00 -5.91836132E-01
  0.00000000E+00  0.00000000E+00  0.00000000E+00 -8.66848787E-01  0.00000000E+00
  0.00000000E+00  0.00000000E+00 -7.84357695E-01 -7.84357695E-01 -1.28640642E+00
  0.00000000E+00  0.00000000E+00  0.00000000E+00  0.00000000E+00  0.00000000E+00
  0.00000000E+00  0.00000000E+00  0.00000000E+00  0.00000000E+00  0.00000000E+00
  0.00000000E+00  0.00000000E+00  0.00000000E+00  0.00000000E+00  0.00000000E+00
  0.00000000E+00  0.00000000E+00  0.00000000E+00  0.00000000E+00  0.00000000E+00
 -7.53073085E-01  0.00000000E+00  0.00000000E+00  0.00000000E+00  0.00000000E+00
  0.00000000E+00  0.00000000E+00  0.00000000E+00  0.00000000E+00  0.00000000E+00
  0.00000000E+00  0.00000000E+00  0.00000000E+00  0.00000000E+00  0.00000000E+00
  0.00000000E+00  0.00000000E+00  0.00000000E+00  0.00000000E+00  0.00000000E+00
  0.00000000E+00  0.00000000E+00 -7.53073085E-01  0.00000000E+00  0.00000000E+00
  0.00000000E+00  0.00000000E+00  0.00000000E+00  0.00000000E+00  0.00000000E+00
  0.00000000E+00  0.00000000E+00  0.00000000E+00  0.00000000E+00  0.00000000E+00
  0.00000000E+00  0.00000000E+00  0.00000000E+00  0.00000000E+00  0.00000000E+00
  0.00000000E+00  0.00000000E+00  0.00000000E+00  0.00000000E+00  0.00000000E+00
 -7.53073085E-01
Number of Excited States                   I               20
Excitation Energies                        R   N=          20
  1.28092325E-03  1.28093584E-03  2.18802800E-02  4.79023794E-02  4.79024246E-02
  5.19994868E-02  8.54223378E-02  8.54223388E-02  1.13251060E-01  1.36088883E-01
  1.41860221E-01  1.41860222E-01  1.50571133E-01  1.60584101E-01  1.65200886E-01
  1.65200889E-01  1.70153157E-01  1.92077277E-01  1.92077300E-01  1.93995931E-01
Oscillator Strengths                       R   N=          20
  1.04046257E-22  1.79651411E-25  1.44574796E-01  3.66668166E-22  5.72265902E-23
  3.42855731E-23  3.44068452E-03  3.44068349E-03  1.17600140E-01  5.00218435E-20
  2.58590384E-01  2.58590395E-01  3.11610651E-02  1.71212093E-20  1.20334027E-01
  1.20334088E-01  1.66050310E-04  9.18967999E-21  1.12256347E-23  7.31221813E-21
Alpha Amplitudes                           R   N=        1200
 -1.98939162E-16  1.49082830E-17  6.65078306E-10  1.63359450E-15  9.95708041E-17
  8.89573656E-17  3.22207102E-10 -9.52233293E-15 -3.49186244E-16 -2.48328365E-17
  2.89941647E-14  6.91796352E-16  1.25959278E-17 -4.49450203E-10  6.45017610E-10
 -1.97896930E-04 -1.70125959E-05  2.22528175E-11 -5.69718547E-11  9.42608820E-11
  4.39982654E-13  3.67411891E-14 -8.71119122E-07  1.80925112E-12 -1.53620564E-13
  1.28364626E-14 -9.02840140E-08 -1.63443306E-13  7.39024126E-14  5.65796361E-15
 -3.52138855E-13 -8.26206584E-15  5.17413235E-16  3.20844404E-08  2.31108231E-08
 -7.05920599E-03 -6.06858427E-04 -2.32011582E-09 -1.12002153E-08  3.99764641E-10
  9.05325357E-01  7.78280690E-02  8.25947519E-11  3.90848063E-07 -4.12715144E-01
  3.54798614E-02  2.46100359E-12 -9.30096758E-08  5.04484598E-02  4.33690091E-03
  9.17110732E-09 -7.31693645E-03  6.29014596E-04 -5.63278870E-13 -1.47657158E-13
  9.82340128E-15  1.30072411E-15  1.66692426E-14 -2.15156550E-15 -5.22232038E-14
  3.81572707E-17 -4.69387331E-16 -6.07552003E-09 -7.88774168E-16 -4.14387319E-17
 -1.44411831E-16 -2.94329480E-09  4.91960929E-16  7.93172462E-17 -6.77003542E-16
 -3.55771245E-15 -1.89055910E-16 -7.85723701E-16  4.10580491E-09 -5.89256787E-09
  1.70126080E-05 -1.97897040E-04  7.72292241E-11  1.64158092E-11 -8.61119629E-10
 -4.34641147E-14  4.85933076E-13  7.95796427E-06  4.44301357E-13  1.04522112E-14
  1.19282561E-13  8.24735237E-07 -5.91841751E-14 -7.68753415E-15  9.28260410E-14
 -3.79937258E-15  2.31286451E-16  6.10807784E-16 -2.93093895E-07 -2.11129309E-07
  6.06858828E-04 -7.05920964E-03 -8.05204370E-09  3.22723123E-09 -3.65154409E-09
 -7.78280471E-02  9.05325151E-01 -1.96415769E-11 -3.57062763E-06  3.54799096E-02
  4.12715598E-01 -5.28087938E-13  8.49683176E-07 -4.33689859E-03  5.04484387E-02
 -8.37852275E-08  6.29016286E-04  7.31695204E-03  1.51037095E-13 -3.81338594E-15
 -7.69308185E-16  9.87060877E-15 -2.38342294E-15 -1.50761205E-14  5.80245698E-15
  1.29597563E-09 -6.56874287E-09  2.75443987E-16  6.00545637E-05  1.04678582E-09
  5.30569480E-09 -3.07476183E-16 -6.15208448E-05  1.11405116E-09 -5.64668863E-09
  3.66766890E-04  1.20651524E-09  6.11544236E-09 -1.57103569E-16  1.88824835E-16
  1.02991986E-14 -3.61893023E-15  3.36260253E-19  3.21357375E-19  3.50580563E-16
 -2.40159806E-06  1.21730045E-05  6.19016514E-13 -5.87596241E-02 -8.88081120E-07
 -4.50139226E-06 -3.55311293E-14  2.06084729E-02 -1.11336010E-07  5.64296320E-07
  3.29849386E-03  2.29740900E-08  1.16462601E-07 -8.18988797E-15  1.83007740E-15
  1.07636833E-13 -1.39009971E-13  4.78114703E-18  1.62408654E-18 -7.13959028E-16
 -1.12732005E-10  5.62741418E-12  9.95726883E-01 -3.11791162E-13 -4.57323588E-11
  1.76838660E-11 -6.28861416E-02 -3.64494764E-13  6.08500374E-12  5.49607314E-13
 -4.50508450E-14 -2.46836646E-13  4.25243205E-13  1.23059655E-03  1.56393279E-03
  9.36273212E-09 -4.74575697E-08 -5.46027566E-12 -5.80821690E-14  6.91105133E-05
 -2.74802268E-16 -3.90893219E-17  3.14570524E-09  6.23462986E-15 -4.42802534E-16
  5.10867771E-17 -7.56019146E-10 -2.32528674E-15 -2.63300991E-17 -3.23075525E-17
 -2.33964916E-14 -4.70856424E-16  5.69050702E-17 -2.94788820E-09  3.06048357E-09
  2.49857536E-04  2.40821926E-05  1.28985054E-11  2.01684938E-10  5.08424106E-10
  5.57130164E-13  5.46488349E-14 -2.58969532E-06  6.88593787E-12  3.57423841E-13
 -3.68009695E-14  6.28594039E-07 -2.15984688E-12 -5.95634383E-14 -4.80340395E-15
 -4.47856572E-14  2.68781094E-14 -3.23333355E-15  2.05800962E-07  9.93799521E-08
  9.13344847E-03  8.80315514E-04  5.19991429E-09  2.13441231E-08 -1.26490371E-08
  4.15528973E-01  4.00502177E-02  8.97024892E-11 -1.40565709E-05  8.96536745E-01
 -8.64115251E-02 -1.38451551E-11  4.74481783E-07 -1.19097374E-01 -1.14790449E-02
  5.35243105E-08  6.06449191E-03 -5.84518162E-04  5.22342730E-13 -3.85782338E-13
 -1.35557890E-14 -1.19387532E-15 -2.78085951E-14  3.99530798E-15  7.02243911E-14
 -6.04769257E-17  7.12798314E-16  3.17677705E-08  4.18239736E-16 -9.85176271E-17
 -8.48291172E-16 -7.63561573E-09  1.34282530E-15 -1.31966434E-17  4.60093884E-16
 -6.03209545E-15 -1.11450414E-16 -6.89026563E-16 -2.97703882E-08  3.09078079E-08
  2.40821871E-05 -2.49857483E-04 -4.30866907E-11  6.03767793E-11  5.13457587E-09
  7.20561336E-14 -7.06069598E-13 -2.61528598E-05  8.10467257E-13  4.01192241E-14
  4.53460284E-13  6.34831448E-06 -5.76829183E-13 -1.20995054E-15  6.11531858E-15
 -5.59504120E-14  3.55005367E-15  4.49292270E-14  2.07835336E-06  1.00363697E-06
  8.80315409E-04 -9.13344752E-03 -1.73699659E-08  6.38962489E-09 -1.27743936E-07
  4.00502593E-02 -4.15529415E-01 -4.79616722E-12 -1.41957250E-04  8.64115000E-02
  8.96536503E-01  3.31380869E-12  4.79180441E-06 -1.14790629E-02  1.19097561E-01
  5.40550255E-07  5.84515170E-04  6.06446149E-03 -2.93461950E-13 -4.34943865E-14
 -1.71842416E-15  1.39263270E-14 -4.24584696E-15 -2.58676031E-14 -7.28752670E-15
  9.32306703E-15 -1.22930464E-15 -1.45309950E-04 -4.50168135E-16  3.84626358E-14
 -1.79690966E-15  1.28835334E-04  6.82178971E-16 -4.06312502E-14 -2.77253993E-15
  5.14924386E-16  4.12240507E-15  1.27121011E-16  1.81966931E-04 -2.48505768E-04
  5.82265107E-09 -2.95136968E-08  8.64539063E-13  2.91336079E-14 -3.64258740E-05
 -1.56861829E-11 -2.31425402E-13  5.39143006E-02  1.29483211E-14  1.50853342E-11
 -8.80149206E-13 -6.75793663E-02 -1.13531727E-13 -2.50584195E-12 -3.07172330E-14
  3.96210137E-15  3.69206382E-12 -2.20944369E-13 -1.08538131E-02 -8.23369271E-03
  2.16083194E-07 -1.09527684E-06  2.72363562E-11  1.51723268E-12  1.15748180E-03
  1.12096966E-05 -5.68194471E-05  2.34856362E-13  9.82414332E-01  2.55929305E-05
  1.29724799E-04 -4.51884481E-13 -3.32295109E-02 -3.55687318E-06  1.80289907E-05
 -6.20950580E-03  1.27763501E-07  6.47604512E-07  3.87645558E-14  2.68279793E-14
  6.71032102E-13  3.97758765E-14 -1.20412336E-17  8.85013422E-18  6.13380454E-16
 -7.94007417E-05  5.03481741E-06  6.88183241E-16 -7.27908215E-10  2.25256311E-04
  1.42835480E-05 -1.22236497E-14  8.99470902E-10 -2.60224778E-04  1.65009053E-05
 -2.33798922E-09  3.72410440E-04  2.36146203E-05  9.73886462E-15 -1.31319166E-14
  2.17200009E-16  6.93970954E-18  2.27283141E-14  1.87968746E-16 -8.84444184E-14
 -4.01233920E-01  2.54423334E-02 -3.54588819E-11 -1.35739295E-06  4.65514134E-01
  2.95183499E-02 -1.36796496E-11  2.80459032E-07 -1.49612861E-01  9.48698364E-03
 -8.28765058E-08  2.43113747E-02  1.54158950E-03  1.44357724E-12 -1.15882572E-12
  2.04271376E-14 -1.38261666E-15  2.01622258E-12  1.62574437E-14 -8.80228625E-14
  1.24711420E-13 -1.17664428E-14 -9.74692956E-07 -1.97498902E-11 -1.80425081E-13
 -7.24955612E-15  6.14225596E-07 -4.03098063E-12 -1.40934150E-13  1.09181374E-14
  8.37466080E-13  2.27630474E-14  1.37807284E-15 -1.88965213E-08 -1.03224889E-07
  1.83160591E-02 -1.16142521E-03  4.13423812E-09  3.85943094E-08 -4.04145090E-10
  5.03481850E-06  7.94007350E-05 -1.46445987E-15 -2.75723702E-09 -1.42835527E-05
  2.25256291E-04  1.98029584E-15  3.40709533E-09  1.65009114E-05  2.60224752E-04
 -8.85603674E-09 -2.36146297E-05  3.72410400E-04 -5.97506056E-16  1.50479421E-15
 -3.07393105E-17 -2.42407424E-16 -1.89172072E-16  2.24628832E-14  1.03098413E-14
  2.54423269E-02  4.01233941E-01 -1.28779871E-13 -5.14165096E-06 -2.95183519E-02
  4.65514131E-01  1.82701972E-12  1.06234813E-06  9.48698379E-03  1.49612861E-01
 -3.13926697E-07 -1.54158952E-03  2.43113748E-02 -1.88406339E-13  1.36547420E-13
 -1.12626305E-15 -2.07836525E-14 -1.62534516E-14  2.01387029E-12  1.10656946E-14
 -4.18756499E-15 -1.41889388E-13 -3.69200789E-06  2.69706282E-12  1.44783560E-14
 -1.58713595E-13  2.32660151E-06  5.69007663E-13  7.51972551E-15  1.53072610E-13
 -1.13126281E-13 -1.74650390E-15  2.19286451E-14 -7.15768316E-08 -3.91004815E-07
 -1.16142527E-03 -1.83160589E-02 -3.12673932E-08  5.10300831E-09 -1.53083277E-09
  9.48992235E-10 -4.81021426E-09  9.79604589E-17 -4.81655285E-04  5.80196428E-11
  2.94116564E-10 -1.82596983E-15  5.85028747E-04  4.57748354E-10 -2.32018689E-09
 -1.02919672E-03 -1.95029281E-09 -9.88552451E-09  2.64787211E-16  9.40350208E-17
 -6.31258693E-15 -3.35847419E-16 -8.53546011E-19 -8.95108801E-19 -1.52782565E-16
  1.58886319E-06 -8.05363021E-06 -4.32601216E-13 -4.29447492E-01 -1.28473605E-07
 -6.51237976E-07 -3.80430359E-13  1.46825051E-01  1.40726765E-07 -7.13319828E-07
 -1.91535886E-02 -4.02113393E-08 -2.03824013E-07  1.12739049E-14  2.91999556E-14
  1.90612479E-12  1.06162332E-13  2.38559110E-18 -3.17651242E-17  3.95614610E-16
 -7.08025204E-12 -5.45071162E-13 -1.73660335E-02  5.85931477E-14  3.34109925E-11
 -1.88549200E-12 -1.76087933E-02  1.25200930E-13  6.63619751E-12  3.65408616E-13
 -2.49863924E-14  3.76985222E-14 -1.87684369E-15  3.32066318E-04  2.34678814E-02
  1.06537128E-07 -5.40012928E-07 -8.72776758E-11 -6.58278323E-13 -1.03779405E-03
 -3.82597997E-14  4.21451489E-15 -6.66809453E-05 -3.29386945E-16  1.53082253E-13
  1.28402203E-14  1.60607402E-04  9.45882258E-16 -1.77895255E-13  1.18388062E-14
 -6.48048141E-16  2.41851152E-13  2.80770672E-14  1.52985766E-04  4.51109526E-05
  9.60056116E-10 -4.86625580E-09 -2.14320598E-13 -3.75181404E-16 -4.18842419E-04
  1.05594707E-10 -7.48651412E-12  3.88592841E-01  1.73620382E-12 -8.97068226E-11
 -5.21253869E-12 -1.12690537E-01 -5.95314851E-13  1.85686429E-11 -5.38732624E-13
  3.38307889E-14 -2.39368768E-12 -4.09959432E-13 -1.16752143E-02  7.99404740E-04
  3.75674745E-08 -1.90418748E-07 -4.91187393E-12  1.39703343E-13 -3.59329615E-06
  1.19657785E-06 -6.06511432E-06 -5.88606251E-14  1.11132005E-01  1.29010810E-06
  6.53920503E-06 -6.16762063E-13  1.57287534E-01 -1.43226431E-06  7.25969965E-06
 -1.44761899E-02 -6.48127566E-08 -3.28516353E-07 -4.08453364E-15 -2.47069057E-14
  9.24459690E-13 -5.47220087E-14 -1.17419593E-20  5.15202065E-18  2.58132722E-15
  2.07317499E-04 -3.41353327E-05 -2.19220879E-14 -8.06828293E-10 -6.22057337E-04
 -1.02423236E-04  1.28642282E-13  3.72473384E-10  6.47874206E-04 -1.06674052E-04
 -9.80659343E-10 -1.20524956E-03 -1.98447243E-04  8.89640813E-15 -1.12470409E-14
  2.54025177E-16 -5.23975318E-17  4.36911061E-14  4.72521046E-15 -1.37542813E-13
 -4.83238768E-01  7.95664356E-02  8.94057780E-11 -4.22288794E-08  2.08482804E-01
  3.43271826E-02 -3.72710351E-11 -7.98370231E-07 -1.98196197E-02  3.26334615E-03
  7.67376108E-08  1.00175775E-02  1.64941773E-03 -3.32477992E-12  2.75284737E-13
 -4.23287327E-15  1.85600124E-16 -1.20794388E-13 -1.30268225E-14  2.18151713E-14
  3.61551053E-13 -7.07559253E-14 -1.08296588E-06  2.72754540E-11  8.91363562E-14
  2.42776123E-14  5.66557277E-06  5.00481407E-11 -1.14845113E-13  4.40205140E-14
 -3.94629556E-12 -3.60229047E-15 -1.47026793E-15  1.51594708E-09  2.69757711E-08
 -5.45613980E-03  8.98366759E-04 -2.44310008E-10 -9.15303993E-09 -1.00734224E-10
  3.41353200E-05  2.07317526E-04 -5.24232714E-15  2.15679544E-09 -1.02423231E-04
  6.22057339E-04  2.37134723E-14 -9.95737004E-10  1.06674039E-04  6.47874232E-04
  2.62144786E-09 -1.98447227E-04  1.20524958E-03 -3.46449612E-15 -4.85781710E-15
  3.80772810E-17  2.86458986E-16  4.74076483E-15 -4.35789937E-14 -1.17173522E-14
 -7.95664183E-02 -4.83238808E-01 -9.84770632E-14  1.13229896E-07  3.43271985E-02
 -2.08482762E-01 -2.64628717E-12  2.13404846E-06 -3.26334870E-03 -1.98196131E-02
 -2.05114007E-07  1.64941837E-03 -1.00175758E-02 -2.47130042E-13  2.31425143E-14
 -7.16203317E-16 -2.58945863E-15 -1.28981237E-14  1.21967929E-13  1.71211727E-14
  5.59100899E-14  3.94027120E-13  2.89494182E-06  2.17694882E-12  1.11812305E-14
 -1.15983154E-13 -1.51447283E-05  3.64321890E-12 -1.29560005E-14 -2.01549610E-13
 -3.14531115E-13 -1.35004434E-16  6.83628406E-15 -4.05090258E-09 -7.21196174E-08
 -8.98366408E-04 -5.45614063E-03 -7.72958404E-09  2.89300064E-10  2.69738518E-10
  4.51449676E-10 -2.28870784E-09  9.34550421E-17 -1.21292221E-04  2.87084208E-10
  1.45379725E-09 -6.52678152E-16  1.08201650E-04  1.14478264E-10 -5.81636853E-10
 -3.12167663E-04 -1.89184300E-10 -9.61521866E-10 -3.85032262E-16 -4.89006924E-16
 -2.43765121E-14 -1.07712369E-15 -6.05935477E-19 -8.17671720E-19  8.27943835E-16
 -2.65897786E-06  1.34786682E-05  4.38930568E-13  4.86688366E-01 -1.80832700E-06
 -9.16569917E-06  5.18605527E-13 -1.33091368E-01  3.30559761E-07 -1.67555527E-06
  2.15641329E-02 -3.93945904E-08 -1.99670113E-07  1.85986379E-14 -2.12781732E-14
 -8.04260862E-13 -3.22920771E-14 -1.74652297E-17  2.24300703E-18 -1.69490924E-15
 -6.71539359E-12  4.53561638E-13  5.31608143E-02 -1.81885004E-13 -8.33180408E-12
  3.00760492E-13  1.27386559E-01 -3.79053966E-13 -1.35823736E-11 -1.65734096E-12
  7.00627034E-14 -4.97728376E-13  5.49974761E-14  4.71645610E-03 -7.63229417E-03
 -6.52602781E-08  3.30805715E-07  2.82948188E-11  1.25002681E-13  5.80437814E-04
 -5.45413880E-14  1.81372917E-15  1.00696374E-04 -5.91888956E-16  1.61661069E-13
  2.39227476E-15 -1.97473513E-04 -6.56292465E-16 -1.61958890E-13  3.66692813E-15
 -1.83017617E-15  3.19986848E-13  4.16884894E-15 -2.72519893E-04 -6.68032550E-05
  2.10065760E-09 -1.06475520E-08  2.32188269E-13  1.04513508E-14  2.36214430E-04
  1.02959967E-10  9.25777891E-12  9.03428431E-01 -1.64310490E-12  3.43669051E-11
 -4.09750231E-12 -4.28718680E-02  6.44090300E-14 -3.53021258E-11 -1.73693893E-12
  1.05394951E-14  1.86857671E-12 -1.68416921E-13  6.73419943E-03 -3.60910083E-03
  9.25051003E-08 -4.68877890E-07  1.24714679E-11  6.42419166E-13 -1.17924855E-03
  2.54267102E-06 -1.28880743E-05 -4.50272548E-13 -1.05359101E-01  1.26801856E-06
  6.42721871E-06  5.26492282E-12 -1.91946002E-01 -6.68301253E-06  3.38741017E-05
  2.25723024E-02  8.81152062E-08  4.46639410E-07  6.42785521E-14  2.57613488E-14
  4.26326330E-12  9.20146032E-14  8.46899110E-18  2.42375655E-17 -1.55769992E-15
  2.80855900E-05 -2.26830276E-04  4.73216757E-15 -3.72215815E-08 -8.31947918E-05
 -6.71913845E-04 -5.91462454E-16  6.79310695E-09  8.77756818E-05 -7.08910933E-04
 -9.18434387E-08 -1.55484928E-04 -1.25575742E-03 -9.54959107E-15 -3.54124901E-15
  5.14436977E-17 -5.45854879E-16  3.45861761E-15  1.92539408E-14  1.28197519E-14
 -9.36487086E-02  7.56343846E-01  1.93161898E-12 -4.01728699E-05 -3.13295537E-02
 -2.53029819E-01  1.46022126E-12 -1.29692989E-05  1.66235156E-02 -1.34258054E-01
  2.05221519E-06 -1.70714078E-03 -1.37875414E-02  2.25035425E-13 -6.43649092E-14
  9.01705210E-17 -6.09170655E-15 -2.41552460E-13 -1.33913410E-12 -1.49753553E-14
  7.32754198E-14 -6.08361864E-13  1.50887928E-06 -2.88857807E-12  4.06223798E-14
  3.15804718E-13  2.33487426E-04 -7.29549324E-12 -1.59050170E-13  1.39897314E-12
  7.13213386E-13 -3.89268205E-15 -2.54578037E-14  4.05484749E-06  2.10102525E-07
 -1.88763218E-03  1.52452601E-02  2.31596614E-08 -9.39799740E-09  3.95390902E-08
 -2.26830281E-04 -2.80855898E-05 -1.19011689E-14  2.66957237E-09  6.71914072E-04
 -8.31948125E-05 -2.92435690E-14 -4.87245273E-10 -7.08911095E-04 -8.77756976E-05
  6.58712471E-09  1.25575780E-03 -1.55484962E-04  1.01834157E-13  3.30912431E-14
 -3.64009568E-16 -4.68378584E-17 -1.91656239E-14  3.47794425E-15 -1.20164548E-13
  7.56343895E-01  9.36487186E-02 -1.40907644E-10  2.88110355E-06  2.53029733E-01
 -3.13295469E-02 -8.08027410E-12  9.30175845E-07 -1.34258069E-01 -1.66235175E-02
 -1.47187515E-07  1.37875390E-02 -1.70714063E-03 -1.68701980E-12  3.59030860E-13
  2.28460899E-15  8.00995283E-17  1.33987543E-12 -2.41370740E-13  2.11577665E-13
 -5.20348519E-13 -6.37497683E-14 -1.08233838E-07  2.68644775E-11 -2.84460491E-13
  3.44909021E-14 -1.67457366E-05  5.99636293E-11  8.80274298E-13  1.19034194E-13
 -6.66102012E-12  2.27084201E-14 -3.19248718E-15 -2.90814238E-07 -1.50665069E-08
  1.52452624E-02  1.88763242E-03  7.62286796E-09  2.85528592E-08 -2.83583010E-09
 -1.18299255E-08  5.99623207E-08 -1.17336531E-15 -1.53339482E-04  4.27760753E-08
  2.16818539E-07  1.68800214E-15  7.87066753E-06 -4.26866010E-08  2.16365264E-07
 -3.79193902E-04  7.77617098E-08  3.94149860E-07  2.83462241E-15 -4.50024825E-17
 -5.11777701E-14  1.09477591E-15 -2.42230259E-18 -8.56824928E-18 -1.38997307E-15
  3.64387425E-05 -1.84696756E-04 -4.35165376E-12 -1.08734392E-01  6.85873424E-06
  3.47648157E-05  5.69799467E-13 -6.27087938E-02 -6.88122507E-06  3.48787674E-05
  1.07342287E-02  5.79891246E-07  2.93930002E-06 -7.29144003E-14 -9.02242245E-15
 -1.73346368E-12  8.50130452E-14  8.60964706E-17  3.21385037E-16  1.21116573E-14
 -2.99030362E-12  2.48966237E-12  5.61625035E-02  1.06739300E-12  9.78080818E-12
 -1.27296359E-12  9.84544161E-01  2.25573895E-12 -1.44609837E-11 -1.35621266E-11
 -1.90286327E-13 -6.42098183E-12  3.56294909E-13  2.25358288E-02 -2.06479003E-03
  8.21747131E-07 -4.16518021E-06  1.40230258E-12  3.26208643E-12  3.86653531E-04
  2.52121967E-15  2.72256315E-16 -4.20812675E-09 -2.79838548E-13 -6.29894707E-15
  6.43264642E-16  8.19330656E-09  3.45671836E-13  6.72724120E-15  6.72758392E-16
 -6.12089041E-13 -1.27793441E-14  1.29911573E-15  5.34923107E-09 -5.36692705E-09
 -3.32635447E-04 -3.22834277E-05 -3.66179318E-11 -3.30649579E-10 -1.51437140E-09
 -3.06275714E-13 -3.11541312E-14  1.26071214E-06  1.64205823E-10  2.76337669E-12
 -2.79772093E-13 -1.45452488E-06  1.43589865E-12  1.78409736E-13  1.92568892E-14
  1.41372248E-13 -2.15479723E-14  1.44893565E-15 -2.78119432E-07 -2.29888671E-07
 -1.51887738E-02 -1.47412331E-03 -7.87643073E-09 -3.28682188E-08  4.33962773E-08
  3.69397700E-03  3.58513341E-04  1.15784306E-11 -3.92553317E-07  1.29731767E-01
 -1.25909192E-02  2.19841937E-11 -1.76598679E-05  9.85811672E-01  9.56764508E-02
  3.80489795E-07 -4.15433743E-02  4.03192891E-03 -3.08959975E-12  5.79747186E-12