*******************************************************
*** WorkDir is not cleaned in parallel environment! ***
*******************************************************
   This run of MOLCAS is using the pymolcas driver

                             OPE
                             OPE          NMOL  CASOP  ENMOLC A   SO
                 OPE        NMOLC        AS  OP EN  MO LC     AS  OP
                OPENM       OL CA        SO  PE NM  OL CA     SOP EN
                OP EN      MO   LC       AS  OP ENMOL  CASO   PENMOL
                OP  EN     MO   LC       AS  OP EN     MO     LC ASO
               OP   E  NMOL  C  AS       OP  EN MO     LC     AS  OP
               OP  E   NMO   LC AS        OPEN  MO     LCASOP EN   M
               O  PEN   MO  LCA  SO
            OPE   NMO   L   CAS    OP
        OPENMOL  CASOP     ENMOL   CASOPE
     OPENMOLCA   SOPENMOLCASOPEN   MOLCASOPE
    OPENMOLCAS   OP           EN   MOL    CAS
    OPENMOLCAS       OP  ENM        O     LCA
    OPENMOLCAS    OPEN  MOLCASO     P  E  NMO
    OPENMOLCAS     OP               E  N  MOL
    OPENMOLCA   SO           PENM   O  L  CAS    OPEN    MO    LCAS
    OPENMOLCA   SOP           ENM   O  L  CAS   OP  EN  MOLC  AS   O
    OPENMOLCA   SOPE           NM      O  LCA   S      OP  EN MO
    OPENMOLC                AS         O  PEN   M      OL  CA  SOPE
    OPENMO        LCASOPE  NMOL        C  ASO   P      ENMOLC     AS
    OPE     NMO      LCA  SO     P     E   NM   OL  CA SO  PE N   MO
          OPENMOLCA            SOPE   NMO        LCAS  O    P  ENMO
     OPENMOLCASOPENMOLCASOPENMOLCASOPENMOLCA
        OPENMOLCASOPENMOLCASOPENMOLCASOPE
            OPENMOLCASOPENMOLCASOPENM
               OPENMOLCASOPENMOLCA        version: 21.06
                   OPENMOLCASO
                       OPE                tag: 24-g18de2a7

 OpenMolcas is free software; you can redistribute it and/or modify it
 under the terms of the GNU Lesser General Public License version 2.1.
 OpenMolcas is distributed in the hope that it will be useful, but it
 is provided "as is" and without any express or implied warranties.
 For more details see the full text of the license in the file
 LICENSE or in <http://www.gnu.org/licenses/>.

                 Copyright (C) The OpenMolcas Authors
           For the author list and the recommended citation,
                   consult the file CONTRIBUTORS.md

           *************************************************
           * pymolcas version py2.18                       *
           *   build 7a16d2f9e823a0c2ad601740b42a4b0e      *
           *   (after the EMIL interpreter by V. Veryazov) *
           *************************************************

configuration info
------------------
Host name: dirac.bu.edu (Linux)
C Compiler ID: GNU
C flags: -std=gnu99 -fopenmp
Fortran Compiler ID: GNU
Fortran flags: -fno-aggressive-loop-optimizations -cpp -fdefault-integer-8 -fopenmp
Definitions: _MOLCAS_;_I8_;_LINUX_
Parallel: OFF (GA=OFF)


   ----------------------------------------------------------------------
  |
  |             Project: ms_caspt2
  |      Submitted from: /scratch/gayverjr/ms_caspt2.3998736391
  |        Scratch area: /scratch/gayverjr/ms_caspt2.3998736391
  |     Save outputs to: /home/gayverjr/opencap_examples
  |              Molcas: /home/qcsoftware/OpenMolcas/builds/molcas_latest
  |
  | Scratch area is NOT empty
  |
  |      MOLCAS_DRIVER = /home/qcsoftware/bin/pymolcas
  | MOLCAS_NEW_WORKDIR = YES
  |      MOLCAS_NPROCS = 16
  |      MOLCAS_SOURCE = /home/qcsoftware/OpenMolcas/Molcas_src
  |   MOLCAS_STRUCTURE = 0
  |
   ----------------------------------------------------------------------

++ ---------   Input file   ---------

&GATEWAY
Expert
Basis set
 N.aug-cc-pvtz
 N1  0.0  0.0  1.037
End of Basis
Basis set
X ..... / inline
   0.00   2
    3    3
               0.0288
               0.0144
               0.0072
      1.00000000             0.00000000             0.00000000
      0.00000000             1.00000000             0.00000000
      0.00000000             0.00000000             1.00000000
     3    3
               0.02455
               0.012275
               0.0061375
     1.00000000             0.00000000             0.00000000
     0.00000000             1.00000000             0.00000000
     0.00000000             0.00000000             1.00000000
     4    4
               0.0755
               0.03775
               0.018875
               1.0000E-08
      1.000000E+00           0.000000E+00           0.000000E+00       0.000000
      0.000000E+00           1.000000E+00           0.000000E+00       0.000000
      0.000000E+00           0.000000E+00           1.000000E+00       0.0000000
      0.0000000000           0.0000000000           0.0000000000       1.0000000
X1  0.000  0.000  0.000
End of basis
Symmetry
x y z

&SEWARD

&SCF

&RASSCF
Inactive = 3 0 0 0 2 0 0 0
Ras2= 0 1 1 0 0 6 5 1
Symmetry = 6
Charge = -1
CIROOT= 10 10 1
SPIN=2

&RASSI
TRD1

&CASPT2
Imaginary = 0.1
Maxiter = 50
MULtistate = all

-- ----------------------------------

--- Start Module: gateway at Thu Jul  1 15:23:07 2021 ---

()()()()()()()()()()()()()()()()()()()()()()()()()()()()()()()()()()()()()()()()()()()()()()()()()()

                                              &GATEWAY

                                   only a single process is used
                       available to each process: 20 GB of memory, 16 threads
                                             pid: 1649
()()()()()()()()()()()()()()()()()()()()()()()()()()()()()()()()()()()()()()()()()()()()()()()()()()

 ###############################################################################
 ###############################################################################
 ###                                                                         ###
 ###                                                                         ###
 ###    WARNING:  EXPERT option is ON!                                       ###
 ###                                                                         ###
 ###                                                                         ###
 ###############################################################################
 ###############################################################################
 GuessOrb option turned off!

++    Symmetry information:
      ---------------------

                    --- Group Generators ---
                    Reflection in the yz-plane  
                    Reflection in the xz-plane  
                    Reflection in the xy-plane  

                    Character Table for D2h

                             E   s(yz) s(xz) C2(z) s(xy) C2(y) C2(x)   i  
                    ag       1     1     1     1     1     1     1     1  
                    b3u      1    -1     1    -1     1    -1     1    -1  x
                    b2u      1     1    -1    -1     1     1    -1    -1  y
                    b1g      1    -1    -1     1     1    -1    -1     1  xy, Rz
                    b1u      1     1     1     1    -1    -1    -1    -1  z
                    b2g      1    -1     1    -1    -1     1    -1     1  xz, Ry
                    b3g      1     1    -1    -1    -1    -1     1     1  yz, Rx
                    au       1    -1    -1     1    -1     1     1    -1  I
--


++    Basis set information:
      ----------------------


      Basis set label: N.AUG-CC-PVTZ.........

      Electronic valence basis set:
      ------------------
      Associated Effective Charge   7.000000 au
      Associated Actual Charge      7.000000 au
      Nuclear Model: Point charge

      Shell  nPrim  nBasis  Cartesian Spherical Contaminant
         s      11       5        X                  
         p       6       4        X                  
         d       3       3                 X         
         f       2       2                 X         


      Basis set label: X...............................................................................

      Electronic valence basis set:
      ------------------
      Associated Effective Charge   0.000000 au
      Associated Actual Charge      0.000000 au
      Nuclear Model: Point charge

      Shell  nPrim  nBasis  Cartesian Spherical Contaminant
         s       3       3        X                  
         p       3       3        X                  
         d       4       4                 X         
--


++    Molecular structure info:
      -------------------------

                    ************************************************ 
                    **** Cartesian Coordinates / Bohr, Angstrom **** 
                    ************************************************ 

     Center  Label                x              y              z                     x              y              z
        1      N1               0.000000       0.000000       1.037000              0.000000       0.000000       0.548757
        2      N1               0.000000       0.000000      -1.037000              0.000000       0.000000      -0.548757
        3      X1               0.000000       0.000000       0.000000              0.000000       0.000000       0.000000

                    *************************************** 
                    *    InterNuclear Distances / Bohr    * 
                    *************************************** 

               1 N1            2 N1            3 X1    
    1 N1       0.000000
    2 N1       2.074000        0.000000
    3 X1       1.037000        1.037000        0.000000

                    ******************************************* 
                    *    InterNuclear Distances / Angstrom    * 
                    ******************************************* 

               1 N1            2 N1            3 X1    
    1 N1       0.000000
    2 N1       1.097514        0.000000
    3 X1       0.548757        0.548757        0.000000

                    ************************************** 
                    *    Valence Bond Angles / Degree    * 
                    ************************************** 
                          Atom centers                 Phi
                      2 N1       1 N1       3 X1         0.00
                      1 N1       2 N1       3 X1         0.00
                      1 N1       3 X1       2 N1       180.00
--


            Nuclear Potential Energy             23.62584378 au

--- Stop Module: gateway at Thu Jul  1 15:23:08 2021 /rc=_RC_ALL_IS_WELL_ ---
*** files: xmldump
    saved to directory /home/gayverjr/opencap_examples

--- Start Module: seward at Thu Jul  1 15:23:08 2021 ---

()()()()()()()()()()()()()()()()()()()()()()()()()()()()()()()()()()()()()()()()()()()()()()()()()()

                                              &SEWARD

                                   only a single process is used
                       available to each process: 20 GB of memory, 16 threads
                                             pid: 1670
()()()()()()()()()()()()()()()()()()()()()()()()()()()()()()()()()()()()()()()()()()()()()()()()()()

               SEWARD will generate:
                  Multipole Moment integrals up to order  2
                  Kinetic Energy integrals
                  Nuclear Attraction integrals (point charge)
                  One-Electron Hamiltonian integrals
                  Velocity integrals
                  Orbital angular momentum around ( 0.0000  0.0000  0.0000 )
                  Velocity quadrupole around ( 0.0000  0.0000  0.0000 )
                  Two-Electron Repulsion integrals

                   Integrals are discarded if absolute value <: 0.10E-13
                   Integral cutoff threshold is set to       <: 0.10E-15

                    Unitary symmetry adaptation


            Nuclear Potential Energy             23.62584378 au


      Basis set specifications :
      Symmetry species         ag   b3u  b2u  b1g  b1u  b2g  b3g  au 
      Basis functions           30   14   14    9   22   15   15    5


  Input file to MOLDEN was generated!

--- Stop Module: seward at Thu Jul  1 15:23:10 2021 /rc=_RC_ALL_IS_WELL_ ---
*** files: ms_caspt2.GssOrb ms_caspt2.guessorb.h5 ms_caspt2.guessorb.molden xmldump
    saved to directory /home/gayverjr/opencap_examples
--- Module seward spent 2 seconds ---

*** symbolic link created: INPORB -> ms_caspt2.GssOrb
--- Start Module: scf at Thu Jul  1 15:23:11 2021 ---

()()()()()()()()()()()()()()()()()()()()()()()()()()()()()()()()()()()()()()()()()()()()()()()()()()

                                                &SCF

                                   only a single process is used
                       available to each process: 20 GB of memory, 16 threads
                                             pid: 1713
()()()()()()()()()()()()()()()()()()()()()()()()()()()()()()()()()()()()()()()()()()()()()()()()()()

++    Input section:
      --------------

      Header of the integral files:
      
       Integrals generated by Gateway/Seward, Thu Jul  1 15:23:08 2021


      Cartesian coordinates in Angstrom:
      -----------------------------------------------------
      No.  Label        X            Y            Z        
      -----------------------------------------------------
       1   N1         0.00000000   0.00000000   0.54875677
       2   X1         0.00000000   0.00000000   0.00000000
       3   N1         0.00000000   0.00000000  -0.54875677
      -----------------------------------------------------
      Nuclear repulsion energy =   23.62584378
--

++    Orbital specifications:
      -----------------------

      Symmetry species               1   2   3   4   5   6   7   8
                                    ag b3u b2u b1g b1u b2g b3g  au
      Frozen orbitals                0   0   0   0   0   0   0   0
      Occupied orbitals              3   1   1   0   2   0   0   0
      Secondary orbitals            27  13  13   9  20  15  15   5
      Deleted orbitals               0   0   0   0   0   0   0   0
      Total number of orbitals      30  14  14   9  22  15  15   5
      Number of basis functions     30  14  14   9  22  15  15   5
--

      Molecular charge                           0.000

++    Optimization specifications:
      ----------------------------

      SCF Algorithm: Conventional
      Minimized density differences are used
      Number of density matrices in core                5
      Maximum number of NDDO SCF iterations           400
      Maximum number of HF SCF iterations             400
      Threshold for SCF energy change            0.10E-08
      Threshold for density matrix               0.10E-03
      Threshold for Fock matrix                  0.15E-03
      Threshold for linear dependence            0.10E-08
      Threshold at which DIIS is turned on       0.15E+00
      Threshold at which QNR/C2DIIS is turned on 0.75E-01
      Threshold for Norm(delta) (QNR/C2DIIS)     0.20E-04
      DIIS extrapolation of the SCF procedure
      All orbitals punched on: SCFORB
--

      Input vectors read from INPORB
      Orbital file label: *Guess orbitals


++ Convergence information
                                   SCF        iterations: Energy and convergence statistics

Iter     Tot. SCF        One-elec.       Two-elec.     Energy      Max Dij or  Max Fij      DNorm      TNorm      AccCon     Time
         Energy          Energy          Energy        Change      Delta Norm                                                in Sec.
   1  -108.739180490  -192.739709459    60.374685189   0.00E+00    0.14E+00*   0.17E+00*    0.53E+01   0.90E+02   None         0.
   2  -108.974351625  -194.849566040    62.249370635  -0.24E+00*   0.41E-01*   0.37E-01*    0.30E+01   0.91E+02   EDIIS        0.
   3  -108.984137830  -194.116120637    61.506139026  -0.98E-02*   0.94E-02*   0.11E-01*    0.68E+00   0.90E+02   EDIIS        0.
   4  -108.984808322  -194.303273735    61.692621632  -0.67E-03*   0.40E-02*   0.21E-02*    0.11E+00   0.90E+02   c2DIIS       0.
   5  -108.984862160  -194.254587992    61.643882052  -0.54E-04*   0.12E-02*   0.67E-03*    0.14E-01   0.90E+02   QNRc2DIIS    0.
   6  -108.984866923  -194.258161520    61.647450817  -0.48E-05*   0.60E-03*   0.20E-03*    0.17E-02   0.90E+02   QNRc2DIIS    0.
   7  -108.984867459  -194.256051061    61.645339822  -0.54E-06*   0.41E-04*   0.29E-04     0.16E-03   0.90E+02   QNRc2DIIS    0.
   8  -108.984867465  -194.256603702    61.645892458  -0.59E-08*   0.57E-05    0.31E-05     0.23E-04   0.90E+02   QNRc2DIIS    0.
   9  -108.984867465  -194.256602417    61.645891173  -0.82E-10    0.26E-06    0.10E-06     0.44E-05   0.90E+02   QNRc2DIIS    0.

       Convergence after  9 Macro Iterations
--

 *****************************************************************************************************************************
 *                                                                                                                           *
 *                                             SCF/KS-DFT Program, Final results                                             *
 *                                                                                                                           *
 *                                                                                                                           *
 *                                                                                                                           *
 *                                                       Final Results                                                       *
 *                                                                                                                           *
 *****************************************************************************************************************************

::    Total SCF energy                               -108.9848674646
      One-electron energy                            -194.2566024173
      Two-electron energy                              61.6458911725
      Nuclear repulsion energy                         23.6258437801
      Kinetic energy (interpolated)                   108.7375378741
      Virial theorem                                    1.0022745557
      Total spin, S(S+1)                                0.0000000000
      Total spin, S                                     0.0000000000
      Max non-diagonal density matrix element           0.0000001982
      Max non-diagonal Fock matrix element              0.0000000359


      All orbitals with orbital energies smaller than  E(LUMO)+0.5 are printed

++    Molecular orbitals:
      -------------------

      Title: SCF orbitals

      Molecular orbitals for symmetry species 1: ag 

          Orbital            1         2         3         4         5         6         7         8         9        10    
          Energy          -15.6853   -1.4725   -0.6345    0.0000    0.0000    0.0090    0.0416    0.0508    0.0538    0.1184
          Occ. No.          2.0000    2.0000    2.0000    0.0000    0.0000    0.0000    0.0000    0.0000    0.0000    0.0000

        1 N1     1s         0.9998    0.0239    0.0065    0.0000    0.0000   -0.0008    0.0003   -0.0100    0.0000   -0.0048
        2 N1     1s         0.0019   -0.8988    0.3408    0.0000    0.0000   -0.0324    0.0721   -0.0463    0.0000   -0.1533
        3 N1     1s         0.0014    0.0049   -0.0013   -0.0000    0.0000    0.0002    0.0019   -0.0052    0.0000    0.0005
        4 N1     1s         0.0018    0.1792    0.2258   -0.0000    0.0000    0.0008    0.0640   -0.4626    0.0000    0.0010
        5 N1     1s         0.0027   -0.0170    0.1412   -0.0000    0.0000   -1.4272   -4.1465   -5.4290   -0.0000  -10.8155
        6 N1     2pz       -0.0072    0.4854    0.9868   -0.0000   -0.0000   -0.0324    0.0717    0.0028    0.0000   -0.1254
        7 N1     2pz        0.0036   -0.0538   -0.0669    0.0000   -0.0000    0.0028    0.0028    0.0257   -0.0000    0.0156
        8 N1     2pz        0.0050   -0.1851   -0.1257   -0.0000    0.0000   -0.0098   -0.0363   -0.2477    0.0000   -0.0944
        9 N1     2pz        0.0103   -0.0942    0.1769   -0.0000    0.0000   -1.4521   -4.4762   -8.1564    0.0000  -10.9995
       10 N1     3d0        0.0008   -0.0287   -0.0258   -0.0000    0.0000   -0.0001   -0.0015   -0.0019   -0.0000   -0.0024
       11 N1     3d0       -0.0014   -0.0217   -0.0211    0.0000   -0.0000    0.0013    0.0089    0.0102   -0.0000    0.0088
       12 N1     3d0       -0.0004    0.0366    0.0106    0.0000   -0.0000   -0.0321   -0.0660    0.1726   -0.0000   -0.2131
       13 N1     3d2+       0.0000    0.0000    0.0000    0.0000    0.0000    0.0000    0.0000    0.0000   -0.0017    0.0000
       14 N1     3d2+      -0.0000   -0.0000   -0.0000    0.0000    0.0000   -0.0000   -0.0000   -0.0000    0.0168   -0.0000
       15 N1     3d2+       0.0000    0.0000    0.0000   -0.0000   -0.0000    0.0000    0.0000    0.0000   -0.0965    0.0000
       16 N1     4f0        0.0002    0.0107    0.0082    0.0000   -0.0000   -0.0007   -0.0016    0.0004    0.0000   -0.0039
       17 N1     4f0        0.0006   -0.0071   -0.0037   -0.0000    0.0000    0.0026    0.0035   -0.0188    0.0000    0.0153
       18 N1     4f2+      -0.0000    0.0000    0.0000    0.0000    0.0000    0.0000   -0.0000    0.0000    0.0002   -0.0000
       19 N1     4f2+      -0.0000   -0.0000    0.0000   -0.0000   -0.0000   -0.0000   -0.0000   -0.0000    0.0004    0.0000
       20 X1     1s        -0.0037    0.0271   -0.1254    0.0000   -0.0000    2.7106    8.3586    6.8682    0.0000   19.1475
       21 X1     1s        -0.0002    0.0030    0.0273   -0.0000   -0.0000   -2.9994   -7.9085   -1.6572   -0.0000  -10.3282
       22 X1     1s         0.0002   -0.0015   -0.0054   -0.0000    0.0000    2.6097    3.4882    0.2149    0.0000    2.9819
       23 X1     3d0       -0.0023   -0.0038   -0.0516    0.0000   -0.0000    0.2032    0.6036    0.6032   -0.0000    1.4952
       24 X1     3d0       -0.0025    0.0327   -0.0344    0.0000   -0.0000    0.4982    1.6296    3.6656    0.0000    3.7257
       25 X1     3d0        0.0003   -0.0051    0.0013   -0.0000    0.0000   -0.1153   -0.3901   -1.9902   -0.0000   -0.4797
       26 X1     3d0       -0.0000    0.0000    0.0000   -0.0000    1.0000    0.0000    0.0000    0.0000   -0.0000    0.0000
       27 X1     3d2+      -0.0000   -0.0000   -0.0000    0.0000    0.0000   -0.0000   -0.0000   -0.0000    0.4296   -0.0000
       28 X1     3d2+       0.0000    0.0000    0.0000   -0.0000   -0.0000    0.0000    0.0000    0.0000   -0.9758    0.0000
       29 X1     3d2+      -0.0000   -0.0000   -0.0000    0.0000    0.0000    0.0000   -0.0000   -0.0000    1.5672   -0.0000
       30 X1     3d2+      -0.0000   -0.0000   -0.0000    1.0000    0.0000    0.0000   -0.0000   -0.0000   -0.0000   -0.0000

          Orbital           11        12        13        14        15    
          Energy            0.1403    0.1566    0.2787    0.3045    0.3536
          Occ. No.          0.0000    0.0000    0.0000    0.0000    0.0000

        1 N1     1s        -0.0181   -0.0000   -0.0136    0.0334    0.0000
        2 N1     1s        -0.0224   -0.0000    0.0702    0.3564    0.0000
        3 N1     1s        -0.0116   -0.0000   -0.0162    0.0289    0.0000
        4 N1     1s        -1.0583   -0.0000   -1.3151    2.3131    0.0000
        5 N1     1s       -12.7814   -0.0000  -28.8203   -0.2786   -0.0000
        6 N1     2pz       -0.0374    0.0000    0.1839    0.0430    0.0000
        7 N1     2pz        0.0647    0.0000    0.0992   -0.0670   -0.0000
        8 N1     2pz       -0.5478   -0.0000   -0.9362    0.8098    0.0000
        9 N1     2pz      -19.4742   -0.0000  -40.8411    8.7271   -0.0000
       10 N1     3d0        0.0014   -0.0000   -0.0157    0.0105   -0.0000
       11 N1     3d0        0.0426    0.0000    0.0729    0.0184   -0.0000
       12 N1     3d0        0.3778    0.0000    0.0643   -1.0248   -0.0000
       13 N1     3d2+       0.0000    0.0078    0.0000   -0.0000   -0.0004
       14 N1     3d2+      -0.0000   -0.0239   -0.0000    0.0000    0.1186
       15 N1     3d2+       0.0000    0.2567    0.0000   -0.0000   -0.5299
       16 N1     4f0       -0.0006   -0.0000   -0.0050   -0.0111    0.0000
       17 N1     4f0       -0.0436   -0.0000   -0.0387    0.0850    0.0000
       18 N1     4f2+       0.0000   -0.0008   -0.0000   -0.0000   -0.0001
       19 N1     4f2+      -0.0000   -0.0026   -0.0000    0.0000   -0.0036
       20 X1     1s        14.9966    0.0000   35.2257    2.8524    0.0000
       21 X1     1s        -2.9767    0.0000   -9.1684   -3.8173   -0.0000
       22 X1     1s         0.4175   -0.0000    1.8881    1.1466    0.0000
       23 X1     3d0        1.5365    0.0000    5.0631    0.8181    0.0000
       24 X1     3d0        8.4889    0.0000   12.4964   -4.0978    0.0000
       25 X1     3d0       -2.0241    0.0000   -1.4599    0.8873   -0.0000
       26 X1     3d0        0.0000   -0.0000    0.0000   -0.0000   -0.0000
       27 X1     3d2+      -0.0000   -1.0855   -0.0000    0.0000    2.9661
       28 X1     3d2+       0.0000    2.6606    0.0000   -0.0000   -2.7371
       29 X1     3d2+      -0.0000   -1.4090   -0.0000    0.0000    0.9872
       30 X1     3d2+      -0.0000    0.0000   -0.0000    0.0000   -0.0000

      Molecular orbitals for symmetry species 2: b3u

          Orbital            1         2         3         4         5    
          Energy           -0.6145    0.0118    0.0411    0.1058    0.2623
          Occ. No.          2.0000    0.0000    0.0000    0.0000    0.0000

        1 N1     2px        0.8877   -0.0128   -0.0535   -0.1049    0.2963
        2 N1     2px       -0.0106   -0.0048    0.0127   -0.0276   -0.0879
        3 N1     2px       -0.0526    0.0181   -0.0505    0.1024    0.4247
        4 N1     2px       -0.0035   -0.1409    0.3373   -1.0222   -2.8889
        5 N1     3d1+      -0.0284    0.0006    0.0019    0.0044   -0.0114
        6 N1     3d1+      -0.0518    0.0011    0.0046    0.0093   -0.0227
        7 N1     3d1+      -0.0102    0.0029   -0.0060    0.0172    0.0153
        8 N1     4f1+       0.0115    0.0000   -0.0013   -0.0004    0.0080
        9 N1     4f1+       0.0013   -0.0007    0.0016   -0.0042   -0.0056
       10 N1     4f3+      -0.0000   -0.0000    0.0000   -0.0000    0.0000
       11 N1     4f3+       0.0000    0.0000   -0.0000    0.0000   -0.0000
       12 X1     2px        0.0237    0.6302   -1.7010    4.6366    5.2563
       13 X1     2px       -0.0161   -1.3465    3.6350   -4.2882   -3.2098
       14 X1     2px        0.0053    1.7965   -1.9506    1.5053    0.9613

      Molecular orbitals for symmetry species 3: b2u

          Orbital            1         2         3         4         5    
          Energy           -0.6145    0.0118    0.0411    0.1058    0.2623
          Occ. No.          2.0000    0.0000    0.0000    0.0000    0.0000

        1 N1     2py        0.8877   -0.0128   -0.0535   -0.1049    0.2963
        2 N1     2py       -0.0106   -0.0048    0.0127   -0.0276   -0.0879
        3 N1     2py       -0.0526    0.0181   -0.0505    0.1024    0.4247
        4 N1     2py       -0.0035   -0.1409    0.3373   -1.0222   -2.8889
        5 N1     3d1-      -0.0284    0.0006    0.0019    0.0044   -0.0114
        6 N1     3d1-      -0.0518    0.0011    0.0046    0.0093   -0.0227
        7 N1     3d1-      -0.0102    0.0029   -0.0060    0.0172    0.0153
        8 N1     4f3-       0.0000    0.0000   -0.0000    0.0000   -0.0000
        9 N1     4f3-      -0.0000   -0.0000    0.0000   -0.0000    0.0000
       10 N1     4f1-       0.0115    0.0000   -0.0013   -0.0004    0.0080
       11 N1     4f1-       0.0013   -0.0007    0.0016   -0.0042   -0.0056
       12 X1     2py        0.0237    0.6302   -1.7010    4.6366    5.2563
       13 X1     2py       -0.0161   -1.3465    3.6350   -4.2882   -3.2098
       14 X1     2py        0.0053    1.7965   -1.9506    1.5053    0.9613

      Molecular orbitals for symmetry species 4: b1g

          Orbital            1         2         3         4    
          Energy            0.0000    0.0538    0.1566    0.3536
          Occ. No.          0.0000    0.0000    0.0000    0.0000

        1 N1     3d2-       0.0000   -0.0017    0.0078   -0.0004
        2 N1     3d2-       0.0000    0.0168   -0.0239    0.1186
        3 N1     3d2-      -0.0000   -0.0965    0.2567   -0.5299
        4 N1     4f2-       0.0000    0.0002   -0.0008   -0.0001
        5 N1     4f2-      -0.0000    0.0004   -0.0026   -0.0036
        6 X1     3d2-       0.0000    0.4296   -1.0855    2.9661
        7 X1     3d2-      -0.0000   -0.9758    2.6606   -2.7371
        8 X1     3d2-       0.0000    1.5672   -1.4090    0.9872
        9 X1     3d2-       1.0000   -0.0000    0.0000   -0.0000

      Molecular orbitals for symmetry species 5: b1u

          Orbital            1         2         3         4         5         6         7    
          Energy          -15.6817   -0.7795    0.0119    0.0415    0.1044    0.2027    0.3305
          Occ. No.          2.0000    2.0000    0.0000    0.0000    0.0000    0.0000    0.0000

        1 N1     1s         0.9994    0.0062   -0.0008   -0.0004   -0.0045    0.0064    0.0098
        2 N1     1s        -0.0015    0.9299   -0.0163    0.0450   -0.1168    0.1600   -0.2152
        3 N1     1s         0.0008    0.0002    0.0002    0.0016   -0.0013   -0.0151   -0.0456
        4 N1     1s         0.0310    0.3152    0.1198    0.2979    1.4455   10.0373   15.2159
        5 N1     1s         0.0113    0.0758    1.5470    3.8012   13.2440   57.8396   60.0542
        6 N1     2pz       -0.0044    0.4555   -0.0049    0.0199   -0.0342    0.0761   -0.0564
        7 N1     2pz        0.0008   -0.0315   -0.0033   -0.0068   -0.0472   -0.3350   -0.5307
        8 N1     2pz       -0.0123   -0.1640   -0.0640   -0.1336   -0.8234   -5.7218   -9.3527
        9 N1     2pz       -0.0026   -0.0101   -0.6924   -1.6893   -5.6581  -19.5735  -15.0036
       10 N1     3d0        0.0010   -0.0044    0.0003   -0.0004    0.0023   -0.0007    0.0047
       11 N1     3d0        0.0013   -0.0016    0.0010   -0.0031    0.0287    0.2297    0.4539
       12 N1     3d0        0.0023    0.0198    0.0283    0.0647    0.2599    1.3070    1.7529
       13 N1     3d2+       0.0000   -0.0000   -0.0000   -0.0000   -0.0000   -0.0000   -0.0000
       14 N1     3d2+      -0.0000    0.0000   -0.0000    0.0000    0.0000    0.0000    0.0000
       15 N1     3d2+       0.0000   -0.0000    0.0000    0.0000    0.0000    0.0000    0.0000
       16 N1     4f0       -0.0007   -0.0015    0.0003    0.0009   -0.0000   -0.0132   -0.0325
       17 N1     4f0       -0.0000    0.0003   -0.0031   -0.0066   -0.0218   -0.0653   -0.0568
       18 N1     4f2+       0.0000   -0.0000    0.0000   -0.0000    0.0000    0.0000    0.0000
       19 N1     4f2+       0.0000    0.0000   -0.0000   -0.0000   -0.0000   -0.0000   -0.0000
       20 X1     2pz        0.0005    0.0063    0.9763    2.5932    7.0861    9.9344    2.1554
       21 X1     2pz       -0.0001   -0.0040   -1.5674   -4.0951   -5.1402   -3.8983    0.3293
       22 X1     2pz        0.0000    0.0013    1.8785    2.0548    1.6618    0.9371   -0.2424

      Molecular orbitals for symmetry species 6: b2g

          Orbital            1         2         3         4         5    
          Energy            0.0000    0.0493    0.1189    0.1730    0.3156
          Occ. No.          0.0000    0.0000    0.0000    0.0000    0.0000

        1 N1     2px        0.0000    0.0549    0.4731   -0.6572   -0.4632
        2 N1     2px       -0.0000    0.0125   -0.0166   -0.0237    0.0186
        3 N1     2px       -0.0000    0.5238   -0.5585   -1.3004    1.7392
        4 N1     2px       -0.0000   12.1917  -18.6690  -30.0803   58.2658
        5 N1     3d1+      -0.0000    0.0033    0.0055   -0.0159    0.0040
        6 N1     3d1+       0.0000   -0.0422    0.0969    0.0624   -0.2192
        7 N1     3d1+       0.0000   -0.1929    0.2675    0.3289   -0.3772
        8 N1     4f1+      -0.0000    0.0007   -0.0051    0.0014    0.0134
        9 N1     4f1+      -0.0000    0.0289   -0.0467   -0.0505    0.1023
       10 N1     4f3+      -0.0000   -0.0000    0.0000    0.0000   -0.0000
       11 N1     4f3+      -0.0000    0.0000   -0.0000   -0.0000    0.0000
       12 X1     3d1+       0.0000   -0.8184    1.3687    2.0532   -5.5915
       13 X1     3d1+       0.0000   -4.2552    6.6295    9.4746  -14.6439
       14 X1     3d1+      -0.0000    2.0912   -1.6772   -1.7747    1.8044
       15 X1     3d1+       1.0000   -0.0000    0.0000    0.0000   -0.0000

      Molecular orbitals for symmetry species 7: b3g

          Orbital            1         2         3         4         5    
          Energy            0.0000    0.0493    0.1189    0.1730    0.3156
          Occ. No.          0.0000    0.0000    0.0000    0.0000    0.0000

        1 N1     2py        0.0000    0.0549    0.4731   -0.6572   -0.4632
        2 N1     2py       -0.0000    0.0125   -0.0166   -0.0237    0.0186
        3 N1     2py       -0.0000    0.5238   -0.5585   -1.3004    1.7392
        4 N1     2py       -0.0000   12.1917  -18.6690  -30.0803   58.2658
        5 N1     3d1-      -0.0000    0.0033    0.0055   -0.0159    0.0040
        6 N1     3d1-       0.0000   -0.0422    0.0969    0.0624   -0.2192
        7 N1     3d1-       0.0000   -0.1929    0.2675    0.3289   -0.3772
        8 N1     4f3-      -0.0000    0.0000   -0.0000   -0.0000    0.0000
        9 N1     4f3-      -0.0000   -0.0000    0.0000    0.0000   -0.0000
       10 N1     4f1-      -0.0000    0.0007   -0.0051    0.0014    0.0134
       11 N1     4f1-      -0.0000    0.0289   -0.0467   -0.0505    0.1023
       12 X1     3d1-       0.0000   -0.8184    1.3687    2.0532   -5.5915
       13 X1     3d1-       0.0000   -4.2552    6.6295    9.4746  -14.6439
       14 X1     3d1-      -0.0000    2.0912   -1.6772   -1.7747    1.8044
       15 X1     3d1-       1.0000   -0.0000    0.0000    0.0000   -0.0000
--


++    Molecular charges:
      ------------------

      Mulliken charges per centre and basis function type
      ---------------------------------------------------

                N1      X1    
      1s       4.0417 -0.1005
      2px      0.9590  0.0069
      2pz      1.0231  0.0023
      2py      0.9590  0.0069
      3d2+     0.0000 -0.0000
      3d1+     0.0346  0.0000
      3d0      0.0011 -0.0371
      3d1-     0.0346  0.0000
      3d2-     0.0000  0.0000
      4f3+     0.0000  0.0000
      4f2+     0.0000  0.0000
      4f1+     0.0030  0.0000
      4f0      0.0018  0.0000
      4f1-     0.0030  0.0000
      4f2-     0.0000  0.0000
      4f3-     0.0000  0.0000
      Total    7.0607 -0.1215

      N-E     -0.0607  0.1215

      Total electronic charge=   14.000000

      Total            charge=   -0.000000
--


++    Molecular properties:
      ---------------------

      Charge (e):
                      =   -0.0000
      Dipole Moment (Debye):
      Origin of the operator (Ang)=    0.0000    0.0000    0.0000
                   X=  0.0000E+00               Y=  0.0000E+00               Z=  0.0000E+00           Total=  0.0000E+00
      Quadrupole Moment (Debye*Ang):
      Origin of the operator (Ang)=    0.0000    0.0000    0.0000
                  XX= -1.0396E+01              XY=  0.0000E+00              XZ=  0.0000E+00              YY= -1.0396E+01
                  YZ=  0.0000E+00              ZZ= -1.1646E+01
      In traceless form (Debye*Ang)
                  XX=  6.2522E-01              XY=  0.0000E+00              XZ=  0.0000E+00              YY=  6.2522E-01
                  YZ=  0.0000E+00              ZZ= -1.2504E+00
--


  Input file to MOLDEN was generated!

 ###############################################################################
 ###############################################################################
 ###                                                                         ###
 ###                                                                         ###
 ###    WARNING: RunFile label nBas                                          ###
 ###    was used       72 times                                              ###
 ###                                                                         ###
 ###                                                                         ###
 ###############################################################################
 ###############################################################################
--- Stop Module: scf at Thu Jul  1 15:23:12 2021 /rc=_RC_ALL_IS_WELL_ ---
*** files: ms_caspt2.scf.molden ms_caspt2.ScfOrb ms_caspt2.scf.h5 xmldump
    saved to directory /home/gayverjr/opencap_examples
--- Module scf spent 1 second ---

*** symbolic link created: INPORB -> ms_caspt2.ScfOrb
--- Start Module: rasscf at Thu Jul  1 15:23:12 2021 ---

()()()()()()()()()()()()()()()()()()()()()()()()()()()()()()()()()()()()()()()()()()()()()()()()()()

                                              &RASSCF

                                   only a single process is used
                       available to each process: 20 GB of memory, 16 threads
                                             pid: 1752
()()()()()()()()()()()()()()()()()()()()()()()()()()()()()()()()()()()()()()()()()()()()()()()()()()


      Header of the ONEINT file:
      --------------------------
      
      Integrals generated by Gateway/Seward, Thu Jul  1 15:23:08 2021


      OrdInt status: non-squared


      Cartesian coordinates in Angstrom:
      -----------------------------------------------------
      No.  Label        X            Y            Z        
      -----------------------------------------------------
       1   N1         0.00000000   0.00000000   0.54875677
       2   X1         0.00000000   0.00000000   0.00000000
       3   N1         0.00000000   0.00000000  -0.54875677
      -----------------------------------------------------
      Nuclear repulsion energy =   23.62584378

++    Wave function specifications:
      -----------------------------

      Number of closed shell electrons          10
      Number of electrons in active shells       5
      Max number of holes in RAS1 space          0
      Max nr of electrons in RAS3 space          0
      Number of inactive orbitals                5
      Number of active orbitals                 14
      Number of secondary orbitals             105
      Spin quantum number                      0.5
      State symmetry                             6
--

++    Orbital specifications:
      -----------------------

      Symmetry species                           1   2   3   4   5   6   7   8
                                                ag b3u b2u b1g b1u b2g b3g  au
      Frozen orbitals                            0   0   0   0   0   0   0   0
      Inactive orbitals                          3   0   0   0   2   0   0   0
      Active orbitals                            0   1   1   0   0   6   5   1
      RAS1 orbitals                              0   0   0   0   0   0   0   0
      RAS2 orbitals                              0   1   1   0   0   6   5   1
      RAS3 orbitals                              0   0   0   0   0   0   0   0
      Secondary orbitals                        27  13  13   9  20   9  10   4
      Deleted orbitals                           0   0   0   0   0   0   0   0
      Number of basis functions                 30  14  14   9  22  15  15   5
--

++    CI expansion specifications:
      ----------------------------

      Number of CSFs                          3943
      Number of determinants                  6483
      Number of root(s) required                10
      Root chosen for geometry opt.             10
      CI roots used                              1     2     3     4     5     6     7     8     9    10
      weights                                0.100 0.100 0.100 0.100 0.100 0.100 0.100 0.100 0.100 0.100
      highest root included in the CI           10
      max. size of the explicit Hamiltonian    200
--

++    Optimization specifications:
      ----------------------------

      RASSCF algorithm: Conventional
      Maximum number of macro iterations       200
      Maximum number of SX iterations          100
      Threshold for RASSCF energy            0.100E-07
      Threshold for max MO rotation          0.100E+00
      Threshold for max BLB element          0.100E-03
      Level shift parameter                  0.500E+00
      Make Quasi-Newton update
--

      Orbitals from runfile: scf orbitals
      The MO-coefficients are taken from scf orbitals on runfile

      Total molecular charge   -1.00

      ************************************************************************************************************************
      *                                                                                                                      *
      *                                            Wave function control section                                             *
      *                                                                                                                      *
      ************************************************************************************************************************


                                         RASSCF iterations: Energy and convergence statistics
                                         ----------------------------------------------------

      Iter CI   SX   CI       RASSCF       Energy    max ROT     max BLB   max BLB  Level Ln srch  Step   QN   Walltime
          iter iter root      energy       change     param      element    value   shift minimum  type update hh:mm:ss
 Nr of preliminary CI iterations:   6
        1   1   36    0  -108.65394962    0.00E+00   0.19E+00*   2  11 5 -0.42E-01*  0.22   0.00    SX    NO    0:00:02
        2   5   37    0  -108.68130486   -0.27E-01* -0.92E-01    3  24 1 -0.15E-01*  0.21   0.00    SX    NO    0:00:01
        3   3   35    0  -108.68477810   -0.35E-02*  0.16E+00*   2  11 5 -0.69E-02*  0.21   0.00    SX    NO    0:00:01
        4   4   36    0  -108.68561275   -0.83E-03*  0.24E+00*   3  19 1  0.29E-02*  0.21   0.00    SX    NO    0:00:01
        5   5   33    0  -108.68608604   -0.47E-03* -0.26E+00*   1   7 3  0.15E-02*  0.21   2.50    QN   YES    0:00:01
        6  10   33    0  -108.68648835   -0.40E-03* -0.15E+00*   3   8 7  0.97E-03*  0.21   2.09    LS   YES    0:00:02
        7   3   32    0  -108.68662497   -0.14E-03* -0.83E-01    3   8 7  0.12E-02*  0.21   2.38    QN   YES    0:00:01
        8  22   33    0  -108.68680906   -0.18E-03* -0.94E-01    1  13 3 -0.24E-02*  0.21   1.28    QN   YES    0:00:03
        9  14   27    0  -108.68695476   -0.15E-03* -0.74E-01    3  16 1  0.11E-02*  0.24   1.31    QN   YES    0:00:02
       10   5   27    0  -108.68699527   -0.41E-04* -0.61E-01    3  10 1  0.77E-03*  0.24   1.99    LS   YES    0:00:01
       11  13   28    0  -108.68700795   -0.13E-04*  0.38E-01    1  13 3  0.72E-03*  0.25   1.18    QN   YES    0:00:02
       12  11   24    0  -108.68701496   -0.70E-05*  0.21E-01    3  10 1  0.20E-03*  0.25   1.59    LS   YES    0:00:01
       13  13   25    0  -108.68701603   -0.11E-05* -0.96E-02    1  13 2  0.17E-03*  0.25   1.05    QN   YES    0:00:02
       14  10   24    0  -108.68701705   -0.10E-05* -0.12E-01    1  13 3 -0.12E-03*  0.25   2.34    LS   YES    0:00:01
       15   6   22    0  -108.68701757   -0.52E-06*  0.48E-02    3  10 1 -0.90E-04   0.25   1.09    QN   YES    0:00:01
       16   6   17    0  -108.68701807   -0.50E-06*  0.27E-02    3  10 1 -0.71E-04   0.25   1.67    QN   YES    0:00:01
       17   7   17    0  -108.68701850   -0.43E-06*  0.45E-02    1  13 3  0.60E-04   0.25   1.90    QN   YES    0:00:01
       18   8   16    0  -108.68701894   -0.44E-06*  0.61E-02    1   8 3  0.62E-04   0.25   1.88    QN   YES    0:00:01
       19   7   27    0  -108.68701943   -0.49E-06* -0.98E-02    3  10 1  0.87E-04   0.25   2.33    QN   YES    0:00:02
       20  12   29    0  -108.68702042   -0.99E-06* -0.19E-01    3  10 1  0.12E-03*  0.25   2.50    QN   YES    0:00:02
       21   7   24    0  -108.68702302   -0.26E-05* -0.54E-01    2   8 7  0.16E-03*  0.25   2.50    QN   YES    0:00:02
       22  16   32    0  -108.68702982   -0.68E-05*  0.69E-01    2   8 7  0.31E-03*  0.25   1.44    QN   YES    0:00:03
       23   7   33    0  -108.68703817   -0.83E-05*  0.67E-01    2   8 7  0.45E-03*  0.25   1.36    QN   YES    0:00:02
       24   7   34    0  -108.68705285   -0.15E-04* -0.12E+00*   1  13 3 -0.55E-03*  0.25   2.50    QN   YES    0:00:02
       25   9   34    0  -108.68708786   -0.35E-04* -0.11E+00*   1  13 3 -0.70E-03*  0.25   1.91    QN   YES    0:00:02
       26   9   36    0  -108.68712846   -0.41E-04* -0.88E-01    1  13 3 -0.74E-03*  0.25   2.12    QN   YES    0:00:02
       27  11   35    0  -108.68717682   -0.48E-04* -0.74E-01    1  13 3 -0.63E-03*  0.25   2.32    LS   YES    0:00:02
       28  10   35    0  -108.68719796   -0.21E-04* -0.72E-01    1  13 3 -0.55E-03*  0.25   1.62    QN   YES    0:00:02
       29  10   35    0  -108.68722278   -0.25E-04*  0.49E-01    3  10 1 -0.45E-03*  0.25   1.81    LS   YES    0:00:02
       30   8   34    0  -108.68722920   -0.64E-05* -0.14E-01    3  10 1 -0.48E-03*  0.25   1.19    QN   YES    0:00:02
       31  42   34    0  -108.68723576   -0.66E-05* -0.16E-01    2   8 7 -0.23E-03*  0.25   2.01    QN   YES    0:00:06
       32  13   32    0  -108.68724305   -0.73E-05* -0.11E-01    3  10 1  0.18E-03*  0.25   1.38    QN   YES    0:00:02
       33  10   32    0  -108.68724567   -0.26E-05* -0.15E-01    3  10 1  0.26E-03*  0.25   1.97    QN   YES    0:00:01
       34  10   31    0  -108.68724794   -0.23E-05* -0.10E-01    3  10 1  0.19E-03*  0.25   1.73    QN   YES    0:00:02
       35   5   31    0  -108.68724979   -0.18E-05* -0.13E-01    3  13 7 -0.10E-03*  0.25   2.28    QN   YES    0:00:01
       36  10   33    0  -108.68725287   -0.31E-05*  0.28E-01    3  10 1 -0.21E-03*  0.25   2.50    QN   YES    0:00:02
       37   8   33    0  -108.68725923   -0.64E-05*  0.60E-01    3  10 1 -0.59E-03*  0.25   2.50    QN   YES    0:00:02
       38   9   35    0  -108.68727259   -0.13E-04*  0.10E+00*   3  10 1 -0.11E-02*  0.26   2.28    QN   YES    0:00:02
       39  10   33    0  -108.68729383   -0.21E-04* -0.10E+00*   3  10 1 -0.17E-02*  0.26   1.61    QN   YES    0:00:03
       40  10   36    0  -108.68731676   -0.23E-04* -0.94E-01    3  10 1 -0.19E-02*  0.26   1.75    QN   YES    0:00:03
       41  11   36    0  -108.68735002   -0.33E-04* -0.84E-01    3  10 1 -0.17E-02*  0.26   2.29    QN   YES    0:00:03
       42   7   34    0  -108.68739373   -0.44E-04* -0.63E-01    3  10 1 -0.81E-03*  0.26   1.98    LS   YES    0:00:02
       43  10   34    0  -108.68740779   -0.14E-04*  0.26E-01    4  13 7 -0.53E-03*  0.26   1.36    QN   YES    0:00:02
       44   6   35    0  -108.68742385   -0.16E-04*  0.33E-01    4   9 7 -0.41E-03*  0.25   2.50    LS   YES    0:00:02
       45   8   34    0  -108.68743446   -0.11E-04*  0.20E-01    3  10 1  0.86E-03*  0.25   1.48    QN   YES    0:00:02
       46  11   33    0  -108.68744960   -0.15E-04*  0.26E-01    3  10 1  0.89E-03*  0.25   2.50    LS   YES    0:00:02
       47   9   32    0  -108.68745954   -0.99E-05*  0.42E-01    3  10 1  0.94E-03*  0.25   1.33    QN   YES    0:00:02
       48  30   33    0  -108.68746930   -0.98E-05*  0.34E-01    3  10 1  0.51E-03*  0.25   1.92    LS   YES    0:00:04
       49  11   33    0  -108.68747279   -0.35E-05*  0.22E-01    4   8 7  0.28E-03*  0.25   1.41    QN   YES    0:00:02
       50  23   32    0  -108.68747584   -0.31E-05*  0.22E-01    3   9 7 -0.16E-03*  0.25   1.80    QN   YES    0:00:04
       51  11   32    0  -108.68747942   -0.36E-05*  0.17E-01    3  10 1 -0.31E-03*  0.25   1.76    QN   YES    0:00:02
       52  24   33    0  -108.68748334   -0.39E-05* -0.19E-01    3  10 1 -0.37E-03*  0.25   1.99    QN   YES    0:00:03
       53   7   34    0  -108.68748817   -0.48E-05* -0.15E-01    4   9 7 -0.29E-03*  0.25   1.90    QN   YES    0:00:02
       54  10   33    0  -108.68749309   -0.49E-05*  0.18E-01    4   9 7 -0.24E-03*  0.25   1.96    QN   YES    0:00:02
       55  11   32    0  -108.68749874   -0.57E-05*  0.29E-01    3  10 1  0.22E-03*  0.25   2.07    QN   YES    0:00:02
       56  12   32    0  -108.68750587   -0.71E-05* -0.40E-01    3  10 1  0.44E-03*  0.25   2.12    QN   YES    0:00:02
       57  12   32    0  -108.68751427   -0.84E-05*  0.41E-01    3  10 1  0.51E-03*  0.25   2.01    QN   YES    0:00:02
       58  11   32    0  -108.68752194   -0.77E-05*  0.26E-01    3  10 1  0.37E-03*  0.25   1.80    QN   YES    0:00:02
       59   9   31    0  -108.68752687   -0.49E-05* -0.83E-02    3   9 7 -0.21E-03*  0.25   1.59    QN   YES    0:00:02
       60  10   29    0  -108.68752922   -0.23E-05*  0.65E-02    3  10 1 -0.88E-04   0.25   1.57    QN   YES    0:00:02
       61  47   29    0  -108.68753046   -0.12E-05*  0.59E-02    3  10 1 -0.14E-03*  0.24   1.58    QN   YES    0:00:06
       62  12   31    0  -108.68753149   -0.10E-05*  0.54E-02    4   9 7 -0.12E-03*  0.24   1.87    QN   YES    0:00:02
       63  15   29    0  -108.68753255   -0.11E-05*  0.94E-02    4   9 7 -0.12E-03*  0.24   1.92    QN   YES    0:00:02
       64  30   29    0  -108.68753372   -0.12E-05*  0.12E-01    3  10 1  0.93E-04   0.24   1.88    QN   YES    0:00:04
       65  12   29    0  -108.68753492   -0.12E-05*  0.13E-01    3  10 1  0.16E-03*  0.24   1.91    QN   YES    0:00:02
       66  32   29    0  -108.68753617   -0.12E-05* -0.13E-01    3  10 1  0.15E-03*  0.24   1.83    QN   YES    0:00:04
       67   6   29    0  -108.68753741   -0.12E-05*  0.96E-02    3   7 1 -0.74E-04   0.24   1.83    QN   YES    0:00:01
       68   8   29    0  -108.68753858   -0.12E-05* -0.80E-02    2  12 7  0.81E-04   0.24   1.87    QN   YES    0:00:02
       69  11   29    0  -108.68753974   -0.12E-05* -0.68E-02    3  10 1 -0.13E-03*  0.24   1.81    QN   YES    0:00:02
       70  10   29    0  -108.68754077   -0.10E-05*  0.61E-02    3  10 1 -0.15E-03*  0.24   1.79    QN   YES    0:00:02
       71  11   25    0  -108.68754158   -0.81E-06* -0.52E-02    3   7 1  0.85E-04   0.24   1.70    QN   YES    0:00:02
       72  10   26    0  -108.68754210   -0.52E-06*  0.41E-02    6   7 6 -0.32E-04   0.24   1.63    QN   YES    0:00:01
       73   9   25    0  -108.68754239   -0.30E-06*  0.25E-02    3  10 1  0.55E-04   0.24   1.60    QN   YES    0:00:01
       74   8   25    0  -108.68754255   -0.16E-06* -0.18E-02    3  10 1  0.54E-04   0.24   1.59    QN   YES    0:00:02
       75   9   24    0  -108.68754264   -0.82E-07* -0.11E-02    3   7 1 -0.25E-04   0.24   1.58    QN   YES    0:00:01
       76   8   25    0  -108.68754268   -0.44E-07*  0.12E-02    4   8 7  0.10E-04   0.24   1.72    QN   YES    0:00:01
       77   6   25    0  -108.68754271   -0.36E-07*  0.15E-02    3  10 1 -0.26E-04   0.24   1.89    QN   YES    0:00:01
       78   7   25    0  -108.68754276   -0.45E-07* -0.23E-02    3  10 1 -0.34E-04   0.24   2.04    QN   YES    0:00:01
       79   5   26    0  -108.68754283   -0.73E-07* -0.30E-02    3   7 1  0.32E-04   0.24   1.95    QN   YES    0:00:01
       80   4   25    0  -108.68754293   -0.98E-07* -0.38E-02    4  13 7 -0.34E-04   0.24   2.08    QN   YES    0:00:01
       81   5   23    0  -108.68754306   -0.12E-06*  0.29E-02    4  13 7 -0.28E-04   0.24   1.75    QN   YES    0:00:01
       82   8   22    0  -108.68754314   -0.89E-07*  0.16E-02    3  10 1  0.33E-04   0.24   1.58    QN   YES    0:00:01
       83   5   21    0  -108.68754318   -0.40E-07*  0.83E-03    3  10 1  0.22E-04   0.24   1.38    QN   YES    0:00:01
       84   2   21    0  -108.68754320   -0.12E-07*  0.42E-03    4   9 7  0.90E-05   0.24   1.47    QN   YES    0:00:00
       85   2   20    0  -108.68754320   -0.62E-08  -0.45E-03    3  10 1 -0.52E-05   0.24   1.67    QN   YES    0:00:01
      Convergence after 85 iterations
       86   2   20    0  -108.68754321   -0.64E-08  -0.45E-03    3  10 1 -0.14E-04   0.24   1.67    QN   YES    0:00:03

      ************************************************************************************************************************
                                                      Wave function printout:
                       occupation of active orbitals, and spin coupling of open shells (u,d: Spin up or down)
      ************************************************************************************************************************

      Note: transformation to natural orbitals
      has been made, which may change the order of the CSFs.

      printout of CI-coefficients larger than  0.05 for root  1
      energy=    -109.072936
      conf/sym  2 3 666666 77777 8     Coeff  Weight
             1  2 2 u00000 00000 0  -0.96745 0.93596
            18  0 2 u02000 00000 0  -0.13320 0.01774
           265  u d u0d000 000u0 0  -0.05726 0.00328
           460  u d u0u000 000d0 0  -0.09917 0.00983
           480  u u u0d000 000d0 0  -0.07760 0.00602
           623  2 0 u00000 00020 0  -0.13182 0.01738

      printout of CI-coefficients larger than  0.05 for root  2
      energy=    -109.023480
      conf/sym  2 3 666666 77777 8     Coeff  Weight
             2  2 2 0u0000 00000 0   0.95382 0.90977
             7  2 2 00u000 00000 0   0.08164 0.00667
            20  0 2 0u2000 00000 0   0.13179 0.01737
           161  2 2 00000u 00000 0  -0.13856 0.01920
           275  u d 0ud000 000u0 0   0.05620 0.00316
           470  u d 0uu000 000d0 0   0.09811 0.00963
           485  u u 0ud000 000d0 0   0.07646 0.00585
           677  2 0 0u0000 00020 0   0.12989 0.01687

      printout of CI-coefficients larger than  0.05 for root  3
      energy=    -108.945537
      conf/sym  2 3 666666 77777 8     Coeff  Weight
             7  2 2 00u000 00000 0   0.41830 0.17498
            23  2 2 000u00 00000 0   0.67268 0.45250
            38  0 2 002u00 00000 0  -0.09258 0.00857
            65  2 2 0000u0 00000 0  -0.29573 0.08746
           161  2 2 00000u 00000 0   0.47097 0.22181
           176  0 2 00200u 00000 0  -0.07193 0.00517
           515  u d 00uu00 000d0 0  -0.06891 0.00475
           520  u u 00du00 000d0 0   0.05705 0.00325
           785  2 0 00u000 00020 0   0.05991 0.00359
          1001  2 0 000u00 00020 0   0.09152 0.00838
          2004  u d 00u00u 000d0 0  -0.05344 0.00286
          2072  2 0 00000u 00020 0   0.06388 0.00408

      printout of CI-coefficients larger than  0.05 for root  4
      energy=    -108.875286
      conf/sym  2 3 666666 77777 8     Coeff  Weight
             7  2 2 00u000 00000 0  -0.75763 0.57401
            23  2 2 000u00 00000 0   0.39551 0.15643
            38  0 2 002u00 00000 0  -0.05436 0.00296
            65  2 2 0000u0 00000 0  -0.42887 0.18393
            80  0 2 0020u0 00000 0   0.05907 0.00349
           161  2 2 00000u 00000 0  -0.18009 0.03243
           285  u d 002000 000u0 0  -0.06892 0.00475
           490  u u 002000 000d0 0  -0.07467 0.00558
           785  2 0 00u000 00020 0  -0.11004 0.01211
          1001  2 0 000u00 00020 0   0.05401 0.00292
          1379  2 0 0000u0 00020 0  -0.05834 0.00340

      printout of CI-coefficients larger than  0.05 for root  5
      energy=    -108.746836
      conf/sym  2 3 666666 77777 8     Coeff  Weight
             2  2 2 0u0000 00000 0   0.10306 0.01062
             7  2 2 00u000 00000 0  -0.40257 0.16206
            23  2 2 000u00 00000 0   0.21697 0.04708
            65  2 2 0000u0 00000 0   0.70602 0.49847
            80  0 2 0020u0 00000 0  -0.09694 0.00940
           161  2 2 00000u 00000 0   0.47203 0.22282
           176  0 2 00200u 00000 0  -0.05899 0.00348
           565  u d 00u0u0 000d0 0  -0.07220 0.00521
           570  u u 00d0u0 000d0 0   0.06008 0.00361
           785  2 0 00u000 00020 0  -0.06024 0.00363
          1379  2 0 0000u0 00020 0   0.09605 0.00922
          2072  2 0 00000u 00020 0   0.06460 0.00417

      printout of CI-coefficients larger than  0.05 for root  6
      energy=    -108.524522
      conf/sym  2 3 666666 77777 8     Coeff  Weight
             2  2 2 0u0000 00000 0   0.10422 0.01086
             7  2 2 00u000 00000 0  -0.20230 0.04092
            23  2 2 000u00 00000 0  -0.52883 0.27966
            38  0 2 002u00 00000 0   0.07274 0.00529
            65  2 2 0000u0 00000 0  -0.40763 0.16616
            80  0 2 0020u0 00000 0   0.05624 0.00316
           161  2 2 00000u 00000 0   0.66300 0.43957
           176  0 2 00200u 00000 0  -0.08996 0.00809
           515  u d 00uu00 000d0 0   0.05409 0.00293
          1001  2 0 000u00 00020 0  -0.07181 0.00516
          1379  2 0 0000u0 00020 0  -0.05556 0.00309
          2004  u d 00u00u 000d0 0  -0.06733 0.00453
          2014  u u 00d00u 000d0 0   0.05520 0.00305
          2072  2 0 00000u 00020 0   0.09106 0.00829

      printout of CI-coefficients larger than  0.05 for root  7
      energy=    -108.435853
      conf/sym  2 3 666666 77777 8     Coeff  Weight
           487  u u 002000 d0000 0  -0.50027 0.25027
           779  2 0 00u000 d00u0 0   0.42008 0.17647
           782  2 0 00u000 u00d0 0   0.24253 0.05882
           806  0 2 00u000 d00u0 0  -0.42924 0.18425
           809  0 2 00u000 u00d0 0  -0.24782 0.06142
          3059  u u 000000 d0020 0  -0.51624 0.26650

      printout of CI-coefficients larger than  0.05 for root  8
      energy=    -108.434876
      conf/sym  2 3 666666 77777 8     Coeff  Weight
           265  u d u0d000 000u0 0   0.60144 0.36172
           270  u u d0d000 000u0 0  -0.35894 0.12883
           460  u d u0u000 000d0 0  -0.34724 0.12057
           465  u u d0u000 000d0 0  -0.62187 0.38672

      printout of CI-coefficients larger than  0.05 for root  9
      energy=    -108.430200
      conf/sym  2 3 666666 77777 8     Coeff  Weight
             1  2 2 u00000 00000 0   0.08651 0.00748
            17  2 0 u02000 00000 0   0.14041 0.01972
            18  0 2 u02000 00000 0  -0.35997 0.12958
           265  u d u0d000 000u0 0  -0.24501 0.06003
           270  u u d0d000 000u0 0   0.33432 0.11177
           460  u d u0u000 000d0 0  -0.42437 0.18009
           465  u u d0u000 000d0 0  -0.19302 0.03726
           480  u u u0d000 000d0 0   0.54595 0.29806
           623  2 0 u00000 00020 0  -0.36270 0.13155
           650  0 2 u00000 00020 0   0.14372 0.02066

      printout of CI-coefficients larger than  0.05 for root 10
      energy=    -108.385906
      conf/sym  2 3 666666 77777 8     Coeff  Weight
           275  u d 0ud000 000u0 0  -0.11512 0.01325
           280  u u 0dd000 000u0 0   0.07884 0.00622
           475  u u 0du000 000d0 0   0.09648 0.00931
           488  u u 002000 0d000 0  -0.49511 0.24514
           490  u u 002000 000d0 0   0.05282 0.00279
           780  2 0 00u000 0d0u0 0   0.41493 0.17217
           783  2 0 00u000 0u0d0 0   0.23982 0.05751
           785  2 0 00u000 00020 0  -0.05346 0.00286
           807  0 2 00u000 0d0u0 0  -0.41638 0.17338
           810  0 2 00u000 0u0d0 0  -0.24101 0.05809
          3060  u u 000000 0d020 0  -0.50064 0.25064

      Natural orbitals and occupation numbers for root  1
      sym 2:   1.934274
      sym 3:   1.933733
      sym 6:   1.000000   0.000000   0.065566   0.000000   0.000000   0.000035
      sym 7:   0.000000   0.000000   0.000124   0.065935   0.000184
      sym 8:   0.000149

      Natural orbitals and occupation numbers for root  2
      sym 2:   1.934462
      sym 3:   1.933797
      sym 6:   0.000000   1.000101   0.065272   0.000000   0.000000   0.000034
      sym 7:   0.000000   0.000000   0.000124   0.065876   0.000185
      sym 8:   0.000149

      Natural orbitals and occupation numbers for root  3
      sym 2:   1.940397
      sym 3:   1.934507
      sym 6:   0.000000   0.000000   0.055419   1.003916   0.000000   0.000034
      sym 7:   0.000000   0.000000   0.000123   0.065232   0.000216
      sym 8:   0.000156

      Natural orbitals and occupation numbers for root  4
      sym 2:   1.960079
      sym 3:   1.936437
      sym 6:   0.000000   0.000000   1.013703   0.025611   0.000000   0.000058
      sym 7:   0.000000   0.000000   0.000117   0.063497   0.000318
      sym 8:   0.000180

      Natural orbitals and occupation numbers for root  5
      sym 2:   1.944421
      sym 3:   1.934677
      sym 6:   0.000000   0.000000   0.048417   0.000000   1.006810   0.000056
      sym 7:   0.000000   0.000000   0.000122   0.065054   0.000278
      sym 8:   0.000164

      Natural orbitals and occupation numbers for root  6
      sym 2:   1.937165
      sym 3:   1.933631
      sym 6:   0.000000   0.000000   0.059823   1.002773   0.000000   0.000033
      sym 7:   0.000000   0.000000   0.000123   0.066025   0.000270
      sym 8:   0.000156

      Natural orbitals and occupation numbers for root  7
      sym 2:   0.989444
      sym 3:   1.010330
      sym 6:   0.000000   0.000000   0.982341   0.000010   0.000000   0.000668
      sym 7:   1.000000   0.000002   0.000078   1.015536   0.001591
      sym 8:   0.000000

      Natural orbitals and occupation numbers for root  8
      sym 2:   0.999920
      sym 3:   0.999921
      sym 6:   1.000000   0.000000   0.999082   0.000015   0.000000   0.000980
      sym 7:   0.000000   0.000001   0.000060   0.999158   0.000863
      sym 8:   0.000000

      Natural orbitals and occupation numbers for root  9
      sym 2:   1.007032
      sym 3:   1.004203
      sym 6:   1.000000   0.000000   0.990295   0.000001   0.000000   0.000602
      sym 7:   0.000000   0.000000   0.000185   0.996416   0.001211
      sym 8:   0.000056

      Natural orbitals and occupation numbers for root 10
      sym 2:   0.998611
      sym 3:   1.001208
      sym 6:   0.000000   0.032460   0.996124   0.000023   0.000001   0.000721
      sym 7:   0.000000   0.912722   0.000087   1.056538   0.001504
      sym 8:   0.000001

      ************************************************************************************************************************
      *                                                                                                                      *
      *                                                    Final results                                                     *
      *                                                                                                                      *
      ************************************************************************************************************************


++    Wave function specifications:
      -----------------------------

      Number of closed shell electrons          10
      Number of electrons in active shells       5
      Max number of holes in RAS1 space          0
      Max nr of electrons in RAS3 space          0
      Number of inactive orbitals                5
      Number of active orbitals                 14
      Number of secondary orbitals             105
      Spin quantum number                      0.5
      State symmetry                             6
--

++    Orbital specifications:
      -----------------------

      Symmetry species                           1   2   3   4   5   6   7   8
                                                ag b3u b2u b1g b1u b2g b3g  au
      Frozen orbitals                            0   0   0   0   0   0   0   0
      Inactive orbitals                          3   0   0   0   2   0   0   0
      Active orbitals                            0   1   1   0   0   6   5   1
      RAS1 orbitals                              0   0   0   0   0   0   0   0
      RAS2 orbitals                              0   1   1   0   0   6   5   1
      RAS3 orbitals                              0   0   0   0   0   0   0   0
      Secondary orbitals                        27  13  13   9  20   9  10   4
      Deleted orbitals                           0   0   0   0   0   0   0   0
      Number of basis functions                 30  14  14   9  22  15  15   5
--

++    CI expansion specifications:
      ----------------------------

      Number of CSFs                          3943
      Number of determinants                  6483
      Number of root(s) required                10
      CI roots used                              1     2     3     4     5     6     7     8     9    10
      weights                                0.100 0.100 0.100 0.100 0.100 0.100 0.100 0.100 0.100 0.100
      highest root included in the CI           10
      Root passed to geometry opt.              10
--

++    Final optimization conditions:
      ------------------------------

      Average CI energy                            -108.68754321
      RASSCF energy for state 10                   -108.38590616
      Super-CI energy                                -0.00000000
      RASSCF energy change                            0.00000000
      Max change in MO coefficients              -0.320E-01
      Max non-diagonal density matrix element    -0.449E-03
      Maximum BLB matrix element                 -0.136E-04
      (orbital pair   3,  10 in symmetry   1)
      Norm of electronic gradient            0.155E+00
--


      Final state energy(ies):
      ------------------------

::    RASSCF root number  1 Total energy:   -109.07293618
::    RASSCF root number  2 Total energy:   -109.02347966
::    RASSCF root number  3 Total energy:   -108.94553699
::    RASSCF root number  4 Total energy:   -108.87528568
::    RASSCF root number  5 Total energy:   -108.74683552
::    RASSCF root number  6 Total energy:   -108.52452224
::    RASSCF root number  7 Total energy:   -108.43585296
::    RASSCF root number  8 Total energy:   -108.43487644
::    RASSCF root number  9 Total energy:   -108.43020027
::    RASSCF root number 10 Total energy:   -108.38590616

++    Molecular orbitals:
      -------------------

      Pseudonatural active orbitals and approximate occupation numbers




      Molecular orbitals for symmetry species 1: ag 


      Orbital                 1         2         3         4         5         6         7         8         9
      Energy           -15.5408   -1.3670   -0.5136    0.0001    0.0001    0.0509    0.0960    0.1019    0.1051
      Occ. No.           2.0000    2.0000    2.0000    0.0000    0.0000    0.0000    0.0000    0.0000    0.0000

     1 N1     1s         0.9995    0.0246    0.0062    0.0000   -0.0000   -0.0009   -0.0016   -0.0120   -0.0027
     2 N1     1s         0.0022   -0.8910    0.3397    0.0000   -0.0000   -0.0145    0.0483   -0.0523   -0.0182
     3 N1     1s         0.0023    0.0078   -0.0020    0.0000   -0.0000    0.0009    0.0012   -0.0061   -0.0015
     4 N1     1s         0.0017    0.1787    0.2377    0.0000   -0.0000    0.0216    0.0153   -0.5498   -0.1308
     5 N1     1s         0.0029   -0.0168    0.1606    0.0000   -0.0000   -2.6245   -5.8194   -5.8933   -0.8098
     6 N1     2pz       -0.0090    0.4971    0.9619    0.0000   -0.0000   -0.0146    0.0608   -0.0039   -0.0082
     7 N1     2pz        0.0048   -0.0512   -0.0622   -0.0000    0.0000    0.0037    0.0068    0.0306    0.0065
     8 N1     2pz        0.0060   -0.1890   -0.1045    0.0000   -0.0000   -0.0195   -0.0721   -0.2875   -0.0602
     9 N1     2pz        0.0108   -0.0957    0.1931    0.0000   -0.0000   -2.7333   -6.4614   -9.0867   -1.4928
    10 N1     3d0        0.0009   -0.0308   -0.0284    0.0000   -0.0000   -0.0004   -0.0023   -0.0015   -0.0001
    11 N1     3d0       -0.0017   -0.0261   -0.0296   -0.0000    0.0000    0.0039    0.0099    0.0127    0.0020
    12 N1     3d0       -0.0005    0.0367    0.0044   -0.0000    0.0000   -0.0524   -0.0700    0.2161    0.0572
    13 N1     3d2+       0.0000    0.0001    0.0001   -0.0000   -0.0000    0.0000   -0.0002    0.0005   -0.0023
    14 N1     3d2+       0.0000    0.0003   -0.0001    0.0000    0.0000   -0.0003    0.0017   -0.0043    0.0189
    15 N1     3d2+      -0.0000    0.0001   -0.0005   -0.0000   -0.0000    0.0018   -0.0103    0.0260   -0.1155
    16 N1     4f0        0.0003    0.0121    0.0088    0.0000   -0.0000   -0.0012   -0.0019    0.0006    0.0003
    17 N1     4f0        0.0008   -0.0056   -0.0032    0.0000   -0.0000    0.0040    0.0034   -0.0230   -0.0057
    18 N1     4f2+       0.0000   -0.0001   -0.0001    0.0000   -0.0000   -0.0000    0.0000   -0.0001    0.0002
    19 N1     4f2+       0.0000   -0.0001   -0.0002    0.0000    0.0000   -0.0000    0.0000   -0.0001    0.0006
    20 X1     1s        -0.0039    0.0267   -0.1349   -0.0000    0.0000    5.0657   10.8903    7.1129    0.5926
    21 X1     1s        -0.0002    0.0035    0.0291    0.0000   -0.0000   -5.0871   -8.4610   -1.2627    0.5370
    22 X1     1s         0.0001   -0.0017   -0.0057   -0.0000    0.0000    3.4635    3.1105    0.0216   -0.2796
    23 X1     3d0       -0.0024   -0.0044   -0.0508   -0.0000    0.0000    0.3779    0.8223    0.6395    0.0693
    24 X1     3d0       -0.0026    0.0334   -0.0393   -0.0000    0.0000    0.9580    2.3929    4.1084    0.7254
    25 X1     3d0        0.0003   -0.0053    0.0019    0.0000   -0.0000   -0.2224   -0.6040   -2.0680   -0.4203
    26 X1     3d0       -0.0000   -0.0000    0.0000    0.3493    0.9370   -0.0000   -0.0000   -0.0000   -0.0000
    27 X1     3d2+       0.0000   -0.0000    0.0001    0.0000    0.0000   -0.0076    0.0455   -0.1134    0.5044
    28 X1     3d2+      -0.0000   -0.0000   -0.0002   -0.0000   -0.0000    0.0160   -0.1021    0.2542   -1.1333
    29 X1     3d2+       0.0000    0.0000    0.0000   -0.0000    0.0000   -0.0234    0.1665   -0.3696    1.6126
    30 X1     3d2+      -0.0000   -0.0000    0.0000    0.9370   -0.3493    0.0000    0.0000    0.0000    0.0000



      Molecular orbitals for symmetry species 2: b3u


      Orbital                 1         2         3
      Energy             0.0000    0.0472    0.0905
      Occ. No.           1.5646    0.0000    0.0000

     1 N1     2px        0.9153   -0.0012   -0.0375
     2 N1     2px       -0.0133   -0.0088    0.0168
     3 N1     2px       -0.0712    0.0328   -0.0668
     4 N1     2px       -0.0073   -0.2355    0.4695
     5 N1     3d1+      -0.0264    0.0002    0.0012
     6 N1     3d1+      -0.0430    0.0000    0.0035
     7 N1     3d1+      -0.0022    0.0048   -0.0104
     8 N1     4f1+       0.0103    0.0004   -0.0013
     9 N1     4f1+      -0.0003   -0.0012    0.0026
    10 N1     4f3+      -0.0007    0.0000    0.0000
    11 N1     4f3+      -0.0010   -0.0000   -0.0000
    12 X1     2px        0.0269    1.0689   -2.2464
    13 X1     2px       -0.0177   -2.1800    3.8875
    14 X1     2px        0.0058    2.2041   -1.7242



      Molecular orbitals for symmetry species 3: b2u


      Orbital                 1         2         3
      Energy             0.0000    0.0465    0.0888
      Occ. No.           1.5622    0.0000    0.0000

     1 N1     2py        0.9164   -0.0016   -0.0378
     2 N1     2py       -0.0143   -0.0087    0.0165
     3 N1     2py       -0.0731    0.0323   -0.0663
     4 N1     2py       -0.0063   -0.2322    0.4621
     5 N1     3d1-      -0.0268    0.0002    0.0012
     6 N1     3d1-      -0.0447    0.0001    0.0037
     7 N1     3d1-      -0.0035    0.0046   -0.0109
     8 N1     4f3-       0.0002    0.0000    0.0000
     9 N1     4f3-      -0.0002   -0.0000   -0.0000
    10 N1     4f1-       0.0102    0.0004   -0.0013
    11 N1     4f1-      -0.0004   -0.0012    0.0027
    12 X1     2py        0.0256    1.0511   -2.2211
    13 X1     2py       -0.0170   -2.1450    3.8795
    14 X1     2py        0.0056    2.1881   -1.7363



      Molecular orbitals for symmetry species 4: b1g


      Orbital                 1         2
      Energy             0.0001    0.1048
      Occ. No.           0.0000    0.0000

     1 N1     3d2-      -0.0000   -0.0024
     2 N1     3d2-       0.0000    0.0194
     3 N1     3d2-      -0.0000   -0.1188
     4 N1     4f2-       0.0000    0.0002
     5 N1     4f2-       0.0000    0.0006
     6 X1     3d2-       0.0000    0.5188
     7 X1     3d2-       0.0000   -1.1656
     8 X1     3d2-      -0.0000    1.6628
     9 X1     3d2-       1.0000   -0.0000



      Molecular orbitals for symmetry species 5: b1u


      Orbital                 1         2         3         4
      Energy           -15.5377   -0.6664    0.0473    0.0910
      Occ. No.           2.0000    2.0000    0.0000    0.0000

     1 N1     1s         0.9988    0.0055   -0.0011   -0.0014
     2 N1     1s        -0.0024    0.9256   -0.0082    0.0271
     3 N1     1s         0.0016   -0.0041    0.0008    0.0021
     4 N1     1s         0.0272    0.3573    0.1550    0.1878
     5 N1     1s         0.0089    0.1279    2.3735    4.2391
     6 N1     2pz       -0.0059    0.4315   -0.0008    0.0137
     7 N1     2pz        0.0024   -0.0349   -0.0035   -0.0021
     8 N1     2pz       -0.0099   -0.1673   -0.0741   -0.0670
     9 N1     2pz       -0.0020   -0.0174   -1.0845   -2.0222
    10 N1     3d0        0.0009   -0.0065    0.0003   -0.0001
    11 N1     3d0        0.0009   -0.0077   -0.0011   -0.0082
    12 N1     3d0        0.0019    0.0176    0.0416    0.0654
    13 N1     3d2+       0.0000    0.0001   -0.0000    0.0000
    14 N1     3d2+       0.0000    0.0001   -0.0000   -0.0000
    15 N1     3d2+      -0.0000   -0.0001   -0.0002    0.0007
    16 N1     4f0       -0.0008   -0.0006    0.0006    0.0016
    17 N1     4f0        0.0000    0.0010   -0.0049   -0.0083
    18 N1     4f2+       0.0000   -0.0001   -0.0000    0.0000
    19 N1     4f2+      -0.0000   -0.0002    0.0001   -0.0001
    20 X1     2pz        0.0004    0.0058    1.6007    3.2808
    21 X1     2pz       -0.0001   -0.0032   -2.4776   -4.3844
    22 X1     2pz        0.0000    0.0011    2.2976    1.8337



      Molecular orbitals for symmetry species 6: b2g


      Orbital                 1         2         3         4         5         6
      Energy             0.0000    0.0000    0.0000    0.0000    0.0000    0.0000
      Occ. No.           0.3000    0.1033    0.5307    0.1000    0.1000    0.1011

     1 N1     2px        0.0000   -0.1113    1.1010    0.0969    0.0406   -0.4158
     2 N1     2px        0.0000    0.0171    0.0188   -0.0558   -0.0013    0.0377
     3 N1     2px        0.0000    0.5470    0.2726   -0.6590    2.0562    0.4043
     4 N1     2px        0.0000    9.6824    0.7146   13.7137   85.8344  -16.8610
     5 N1     3d1+      -0.0000    0.0011    0.0083    0.0027    0.0148   -0.0046
     6 N1     3d1+      -0.0000   -0.0409    0.0085   -0.0260   -0.2751    0.0385
     7 N1     3d1+      -0.0000   -0.3754   -0.0333    1.4429    0.4494   -1.3250
     8 N1     4f1+      -0.0000    0.0001   -0.0078    0.0135    0.0212   -0.0100
     9 N1     4f1+       0.0000    0.0378   -0.0052   -0.0695    0.0833    0.0585
    10 N1     4f3+      -0.0000   -0.0000   -0.0014   -0.0000   -0.0000    0.0000
    11 N1     4f3+       0.0000   -0.0001   -0.0013    0.0000    0.0000   -0.0003
    12 X1     3d1+       0.0000   -0.1960   -0.0755   -4.7511   -9.9161    4.5228
    13 X1     3d1+      -0.0000   -3.7135   -0.1381    0.4781  -21.5198    3.3343
    14 X1     3d1+       0.0000    1.9852    0.0171   -1.2010    2.9072   -0.7176
    15 X1     3d1+       1.0000   -0.0000   -0.0000    0.0000    0.0000    0.0000



      Molecular orbitals for symmetry species 7: b3g


      Orbital                 1         2         3         4         5
      Energy             0.0000    0.0000    0.0000    0.0000    0.0000
      Occ. No.           0.1000    0.0961    0.0001    0.4396    0.0021

     1 N1     2py       -0.0000   -0.0767    0.2260   -1.1163   -1.4170
     2 N1     2py       -0.0000    0.0124   -0.1642   -0.0198    0.1833
     3 N1     2py       -0.0000    0.5157   -0.3050   -0.2790    1.4889
     4 N1     2py       -0.0002   12.1797    0.2385   -0.8359   -0.3456
     5 N1     3d1-      -0.0000    0.0021    0.0078   -0.0065    0.0312
     6 N1     3d1-       0.0000   -0.0452    0.0005    0.0013    0.3322
     7 N1     3d1-       0.0000   -0.2033    0.0778    0.0554    0.1088
     8 N1     4f3-      -0.0000   -0.0003    0.7883   -0.0015    0.0274
     9 N1     4f3-       0.0000   -0.0005    0.5075   -0.0016    0.0010
    10 N1     4f1-       0.0000    0.0017    0.0171    0.0080    0.0209
    11 N1     4f1-      -0.0000    0.0303    0.0143    0.0026   -0.1229
    12 X1     3d1-       0.0000   -0.8068    0.0319    0.0593    0.1447
    13 X1     3d1-       0.0001   -4.2855   -0.0569    0.2034    0.2967
    14 X1     3d1-      -0.0000    2.1123   -0.0063   -0.0548   -0.2223
    15 X1     3d1-       1.0000    0.0000    0.0000   -0.0000   -0.0000



      Molecular orbitals for symmetry species 8: au 


      Orbital                 1
      Energy             0.0000
      Occ. No.           0.0001

     1 N1     3d2-       0.5912
     2 N1     3d2-       0.8916
     3 N1     3d2-       0.0185
     4 N1     4f2-      -0.1494
     5 N1     4f2-      -0.2044
--

      Von Neumann Entropy (Root  1) =  0.92096


      Mulliken population analysis for root number:  1
      -----------------------------------------------


++    Molecular charges:
      ------------------

      Mulliken charges per centre and basis function type
      ---------------------------------------------------

                N1      X1    
      1s       4.0893 -0.1111
      2px      0.9741  0.0074
      2pz      0.9778  0.0023
      2py      0.9713  0.0070
      3d2+     0.0000 -0.0000
      3d1+     0.0283  0.9828
      3d0      0.0039 -0.0379
      3d1-     0.0241 -0.0014
      3d2-     0.0001  0.0000
      4f3+     0.0000  0.0000
      4f2+     0.0000  0.0000
      4f1+     0.0024  0.0000
      4f0      0.0023  0.0000
      4f1-     0.0017  0.0000
      4f2-    -0.0000  0.0000
      4f3-     0.0001  0.0000
      Total    7.0754  0.8492

      N-E     -0.0754 -0.8492

      Total electronic charge=   15.000000

      Total            charge=   -1.000000
--



      Expectation values of various properties for root number:  1
      -----------------------------------------------------------


++    Molecular properties:
      ---------------------

      Charge (e):
                      =   -1.0000
      Dipole Moment (Debye):
      Origin of the operator (Ang)=    0.0000    0.0000    0.0000
                   X=  0.0000E+00               Y=  0.0000E+00               Z=  0.0000E+00           Total=  0.0000E+00
      Center of Charge (Ang)
                     X=   -0.00000000               Y=   -0.00000000               Z=   -0.00000000
      Quadrupole Moment (Debye*Ang):
      Origin of the operator (Ang)=    0.0000    0.0000    0.0000
                  XX= -1.0088E+08              XY=  0.0000E+00              XZ=  0.0000E+00              YY= -3.3626E+07
                  YZ=  0.0000E+00              ZZ= -1.0088E+08
      In traceless form (Debye*Ang)
                  XX= -3.3626E+07              XY=  0.0000E+00              XZ=  0.0000E+00              YY=  6.7252E+07
                  YZ=  0.0000E+00              ZZ= -3.3626E+07
--


      Mulliken spin population analysis for root number:  1
      ---------------------------------------------------


++    Molecular charges:
      ------------------

      Mulliken spin population per centre and basis function type
      ---------------------------------------------------

                N1      X1    
      1s       0.0000  0.0000
      2px     -0.0000  0.0000
      2pz      0.0000  0.0000
      2py     -0.0000 -0.0000
      3d2+     0.0000  0.0000
      3d1+    -0.0000  1.0000
      3d0      0.0000  0.0000
      3d1-     0.0000  0.0000
      3d2-     0.0000  0.0000
      4f3+    -0.0000  0.0000
      4f2+     0.0000  0.0000
      4f1+    -0.0000  0.0000
      4f0      0.0000  0.0000
      4f1-     0.0000  0.0000
      4f2-    -0.0000  0.0000
[...]
BVATM    4  Mu4.0002  Se4.002 Se1.004               0.05118783      0.00000000     -0.00000000     -0.00000000
BVATM    4  Mu4.0001  Se4.002 Se1.005               0.01985022      0.00000000     -0.00000000     -0.00000000
BVATM    4  Mu4.0002  Se4.002 Se1.005               0.05118783     -0.00000000      0.00000000     -0.00000000
BVATM    4  Mu4.0001  Se4.002 Se1.006               0.09356868      0.00000154     -0.00000767     -0.00000000
BVATM    4  Mu4.0002  Se4.002 Se1.006               0.12490629      0.00000017     -0.00000085     -0.00000000
BVATM    4  Mu4.0001  Se4.002 Se1.007               0.13728251     -0.00006786      0.00032294     -0.00000002
BVATM    4  Mu4.0002  Se4.002 Se1.007               0.16862013     -0.00000344      0.00001509     -0.00000000
BVATM    4  Mu4.0001  Se4.002 Se1.008               0.15182541     -0.00003825      0.00017569     -0.00000001
BVATM    4  Mu4.0002  Se4.002 Se1.008               0.18316303     -0.00000450      0.00001891     -0.00000000
BVATM    4  Mu4.0001  Se4.002 Se1.009               0.14744748      0.00005717     -0.00026558     -0.00000002
BVATM    4  Mu4.0002  Se4.002 Se1.009               0.17878510      0.00000439     -0.00001871     -0.00000000
BVATM    4  Mu4.0001  Se4.002 Se1.010               0.21923021      0.00017098     -0.00064560     -0.00000011
BVATM    4  Mu4.0002  Se4.002 Se1.010               0.25056783      0.00000858     -0.00002954     -0.00000000
BVATM    4  Mu4.0001  Se4.002 Se1.011               0.24630024      0.00000079     -0.00000275     -0.00000000
BVATM    4  Mu4.0002  Se4.002 Se1.011               0.27763786     -0.00000139      0.00000443     -0.00000000
BVATM    4  Mu4.0001  Se4.002 Se1.012               0.25880238      0.00015191     -0.00051073     -0.00000008
BVATM    4  Mu4.0002  Se4.002 Se1.012               0.29013999      0.00003784     -0.00011658     -0.00000000
BVATM    4  Mu4.0001  Se4.003 Se1.004               0.12924257     -0.00000000      0.00000000     -0.00000000
BVATM    4  Mu4.0002  Se4.003 Se1.004               0.16058019     -0.00000000      0.00000000     -0.00000000
BVATM    4  Mu4.0001  Se4.003 Se1.005               0.12924257      0.00000000     -0.00000000     -0.00000000
BVATM    4  Mu4.0002  Se4.003 Se1.005               0.16058019      0.00000000     -0.00000000     -0.00000000
BVATM    4  Mu4.0001  Se4.003 Se1.006               0.20296103     -0.00010527      0.00041736     -0.00000004
BVATM    4  Mu4.0002  Se4.003 Se1.006               0.23429864     -0.00000355      0.00001282     -0.00000000
BVATM    4  Mu4.0001  Se4.003 Se1.007               0.24667486      0.00010956     -0.00038145     -0.00000004
BVATM    4  Mu4.0002  Se4.003 Se1.007               0.27801248     -0.00000307      0.00000979     -0.00000000
BVATM    4  Mu4.0001  Se4.003 Se1.008               0.26121777     -0.00007774      0.00025955     -0.00000002
BVATM    4  Mu4.0002  Se4.003 Se1.008               0.29255538     -0.00002617      0.00008011     -0.00000000
BVATM    4  Mu4.0001  Se4.003 Se1.009               0.25683983      0.00018511     -0.00062584     -0.00000012
BVATM    4  Mu4.0002  Se4.003 Se1.009               0.28817745      0.00002823     -0.00008743     -0.00000000
--

   (Skipping property calculation,
    use PROP keyword to activate)
--

  Total CASPT2 energies:
::    CASPT2 Root  1     Total energy:   -109.35444720
::    CASPT2 Root  2     Total energy:   -109.30550998
::    CASPT2 Root  3     Total energy:   -109.24005694
::    CASPT2 Root  4     Total energy:   -109.21265737
::    CASPT2 Root  5     Total energy:   -109.06390084
::    CASPT2 Root  6     Total energy:   -108.84079294
::    CASPT2 Root  7     Total energy:   -108.71694486
::    CASPT2 Root  8     Total energy:   -108.71664025
::    CASPT2 Root  9     Total energy:   -108.71568252
::    CASPT2 Root 10     Total energy:   -108.66636738

++ Multi-State CASPT2 section:
********************************************************************************
  MULTI-STATE CASPT2 SECTION
--------------------------------------------------------------------------------

  Output diagonal energies have been shifted. Add   -109.00000000000000     

  Effective Hamiltonian matrix (Symmetric):

                1               2               3               4               5
   1        -0.35444720
   2         0.00000013     -0.30550998
   3        -0.00000000     -0.00215263     -0.24005694
   4         0.00000000      0.00363140      0.02551627     -0.21265737
   5         0.00000000      0.00201780      0.01670243     -0.04102656     -0.06390084
   6         0.00000001      0.00125799      0.01215511     -0.03342870     -0.03162242
   7         0.00000000      0.00000000     -0.00000004      0.00000006      0.00000001
   8        -0.00000237      0.00000000      0.00000000     -0.00000000     -0.00000000
   9         0.00756284      0.00000006     -0.00000002      0.00000006      0.00000005
  10        -0.00000002     -0.00021330      0.00000276     -0.00007577     -0.00006783

                6               7               8               9              10
   6         0.15920706
   7        -0.00000005      0.28305514
   8        -0.00000000     -0.00000000      0.28335975
   9         0.00000004      0.00000000     -0.00004307      0.28431748
  10        -0.00005532      0.00000001      0.00000000      0.00000001      0.33363262

       Total MS-CASPT2 energies:
::    MS-CASPT2 Root  1     Total energy:   -109.35453672
::    MS-CASPT2 Root  2     Total energy:   -109.30600203
::    MS-CASPT2 Root  3     Total energy:   -109.26446101
::    MS-CASPT2 Root  4     Total energy:   -109.20330218
::    MS-CASPT2 Root  5     Total energy:   -109.05495928
::    MS-CASPT2 Root  6     Total energy:   -108.83419368
::    MS-CASPT2 Root  7     Total energy:   -108.71694486
::    MS-CASPT2 Root  8     Total energy:   -108.71664202
::    MS-CASPT2 Root  9     Total energy:   -108.71559122
::    MS-CASPT2 Root 10     Total energy:   -108.66636727

       Eigenvectors:
            0.99992994      0.00000255      0.00000017      0.00000001      0.00000001
           -0.00000255      0.99435003      0.10453628      0.01795519      0.00394194
           -0.00000005      0.07012725     -0.77652891      0.62325212      0.05692252
            0.00000009     -0.07398814      0.58377964      0.76183707     -0.26081423
            0.00000003     -0.02718984      0.19606847      0.16369867      0.95874643
            0.00000001     -0.01168595      0.08266483      0.06357216      0.09759867
           -0.00000000      0.00000001     -0.00000011     -0.00000004      0.00000004
            0.00000291     -0.00000000      0.00000001     -0.00000000      0.00000000
           -0.01183729     -0.00000012     -0.00000014     -0.00000009     -0.00000010
            0.00000003      0.00031863      0.00014471      0.00013867      0.00013216

            0.00000001     -0.00000000      0.00048301      0.01182744     -0.00000003
            0.00146732      0.00000000      0.00000001      0.00000011     -0.00033533
            0.02004095     -0.00000007      0.00000000     -0.00000003     -0.00000884
           -0.07285116      0.00000014      0.00000000      0.00000010     -0.00011418
           -0.12176160      0.00000004      0.00000000      0.00000011     -0.00013920
            0.98967822     -0.00000044      0.00000001      0.00000027     -0.00027307
            0.00000045      1.00000000     -0.00000081      0.00000013      0.00000011
           -0.00000000      0.00000082      0.99915710     -0.04104979      0.00000001
           -0.00000025     -0.00000009      0.04104695      0.99908710      0.00000015
            0.00024565     -0.00000011     -0.00000002     -0.00000015      0.99999989

--

  THE ORIGINAL CI ARRAYS ARE NOW MIXED AS LINEAR
  COMBINATIONS, GIVEN BY THE EIGENVECTORS.
  A NEW JOBIPH FILE NAMED 'JOBMIX' IS PREPARED.
********************************************************************************

++ Mixed CI coefficients:
  The CI coefficients for the MIXED state nr.   1
--------------------------------------------------------------------------------
 CI COEFFICIENTS LARGER THAN  0.50D-01
  Occupation of active orbitals, and spin coupling
  of open shells. (u,d: Spin up or down).
  SGUGA info is (Midvert:IsyUp:UpperWalk/LowerWalk)
        Conf  SGUGA info        Occupation             Coefficient         Weight
           1  ( 1:1:   1/   1)   2 2 u00000 00000 0      -0.968405       0.937809
          18  ( 1:1:   1/  18)   0 2 u02000 00000 0      -0.128931       0.016623
         265  ( 2:7:   4/   5)   u d u0d000 000u0 0      -0.054350       0.002954
         270  ( 2:7:   4/   6)   u u d0d000 000u0 0      -0.051473       0.002650
         460  ( 3:7:   4/   6)   u d u0u000 000d0 0      -0.094142       0.008863
         480  ( 3:7:   4/  10)   u u u0d000 000d0 0      -0.084054       0.007065
         623  ( 4:1:  17/   1)   2 0 u00000 00020 0      -0.127513       0.016260

  The CI coefficients for the MIXED state nr.   2
--------------------------------------------------------------------------------
 CI COEFFICIENTS LARGER THAN  0.50D-01
  Occupation of active orbitals, and spin coupling
  of open shells. (u,d: Spin up or down).
  SGUGA info is (Midvert:IsyUp:UpperWalk/LowerWalk)
        Conf  SGUGA info        Occupation             Coefficient         Weight
           2  ( 1:1:   1/   2)   2 2 0u0000 00000 0       0.944275       0.891654
           7  ( 1:1:   1/   7)   2 2 00u000 00000 0       0.179882       0.032357
          20  ( 1:1:   1/  20)   0 2 0u2000 00000 0       0.131034       0.017170
         161  ( 2:6:   1/   1)   2 2 00000u 00000 0      -0.112009       0.012546
         275  ( 2:7:   4/   7)   u d 0ud000 000u0 0       0.055327       0.003061
         470  ( 3:7:   4/   8)   u d 0uu000 000d0 0       0.097551       0.009516
         485  ( 3:7:   4/  11)   u u 0ud000 000d0 0       0.075652       0.005723
         677  ( 4:1:  17/   3)   2 0 0u0000 00020 0       0.128548       0.016524

  The CI coefficients for the MIXED state nr.   3
--------------------------------------------------------------------------------
 CI COEFFICIENTS LARGER THAN  0.50D-01
  Occupation of active orbitals, and spin coupling
  of open shells. (u,d: Spin up or down).
  SGUGA info is (Midvert:IsyUp:UpperWalk/LowerWalk)
        Conf  SGUGA info        Occupation             Coefficient         Weight
           2  ( 1:1:   1/   2)   2 2 0u0000 00000 0       0.118662       0.014081
           7  ( 1:1:   1/   7)   2 2 00u000 00000 0      -0.854236       0.729718
          23  ( 1:1:   1/  23)   2 2 000u00 00000 0      -0.294755       0.086880
          65  ( 1:1:   1/  65)   2 2 0000u0 00000 0       0.084570       0.007152
         161  ( 2:6:   1/   1)   2 2 00000u 00000 0      -0.337980       0.114230
         176  ( 2:6:   1/  16)   0 2 00200u 00000 0       0.060329       0.003640
         285  ( 2:7:   4/   9)   u d 002000 000u0 0      -0.077664       0.006032
         490  ( 3:7:   4/  12)   u u 002000 000d0 0      -0.084361       0.007117
         785  ( 4:1:  17/   7)   2 0 00u000 00020 0      -0.124009       0.015378

  The CI coefficients for the MIXED state nr.   4
--------------------------------------------------------------------------------
 CI COEFFICIENTS LARGER THAN  0.50D-01
  Occupation of active orbitals, and spin coupling
  of open shells. (u,d: Spin up or down).
  SGUGA info is (Midvert:IsyUp:UpperWalk/LowerWalk)
        Conf  SGUGA info        Occupation             Coefficient         Weight
           2  ( 1:1:   1/   2)   2 2 0u0000 00000 0       0.108071       0.011679
           7  ( 1:1:   1/   7)   2 2 00u000 00000 0      -0.393779       0.155062
          23  ( 1:1:   1/  23)   2 2 000u00 00000 0       0.722101       0.521429
          38  ( 1:1:   1/  38)   0 2 002u00 00000 0      -0.099280       0.009857
          65  ( 1:1:   1/  65)   2 2 0000u0 00000 0      -0.421284       0.177481
          80  ( 1:1:   1/  80)   0 2 0020u0 00000 0       0.058136       0.003380
         161  ( 2:6:   1/   1)   2 2 00000u 00000 0       0.273263       0.074673
         515  ( 3:7:   4/  17)   u d 00uu00 000d0 0      -0.073921       0.005464
         520  ( 3:7:   4/  18)   u u 00du00 000d0 0       0.061595       0.003794
         785  ( 4:1:  17/   7)   2 0 00u000 00020 0      -0.058181       0.003385
        1001  ( 4:1:  17/  15)   2 0 000u00 00020 0       0.098402       0.009683
        1379  ( 4:1:  17/  29)   2 0 0000u0 00020 0      -0.057429       0.003298

  The CI coefficients for the MIXED state nr.   5
--------------------------------------------------------------------------------
 CI COEFFICIENTS LARGER THAN  0.50D-01
  Occupation of active orbitals, and spin coupling
  of open shells. (u,d: Spin up or down).
  SGUGA info is (Midvert:IsyUp:UpperWalk/LowerWalk)
        Conf  SGUGA info        Occupation             Coefficient         Weight
           2  ( 1:1:   1/   2)   2 2 0u0000 00000 0       0.102913       0.010591
           7  ( 1:1:   1/   7)   2 2 00u000 00000 0      -0.183974       0.033847
          23  ( 1:1:   1/  23)   2 2 000u00 00000 0       0.091463       0.008365
          65  ( 1:1:   1/  65)   2 2 0000u0 00000 0       0.732154       0.536050
          80  ( 1:1:   1/  80)   0 2 0020u0 00000 0      -0.100536       0.010107
         161  ( 2:6:   1/   1)   2 2 00000u 00000 0       0.590501       0.348692
         176  ( 2:6:   1/  16)   0 2 00200u 00000 0      -0.079023       0.006245
         565  ( 3:7:   4/  27)   u d 00u0u0 000d0 0      -0.074879       0.005607
         570  ( 3:7:   4/  28)   u u 00d0u0 000d0 0       0.062279       0.003879
        1379  ( 4:1:  17/  29)   2 0 0000u0 00020 0       0.099578       0.009916
        2004  ( 4:4:   8/   5)   u d 00u00u 000d0 0      -0.059102       0.003493
        2072  ( 5:6:  16/   1)   2 0 00000u 00020 0       0.080621       0.006500

  The CI coefficients for the MIXED state nr.   6
--------------------------------------------------------------------------------
 CI COEFFICIENTS LARGER THAN  0.50D-01
  Occupation of active orbitals, and spin coupling
  of open shells. (u,d: Spin up or down).
  SGUGA info is (Midvert:IsyUp:UpperWalk/LowerWalk)
        Conf  SGUGA info        Occupation             Coefficient         Weight
           2  ( 1:1:   1/   2)   2 2 0u0000 00000 0       0.089451       0.008001
           7  ( 1:1:   1/   7)   2 2 00u000 00000 0      -0.087493       0.007655
          23  ( 1:1:   1/  23)   2 2 000u00 00000 0      -0.565149       0.319393
          38  ( 1:1:   1/  38)   0 2 002u00 00000 0       0.077697       0.006037
          65  ( 1:1:   1/  65)   2 2 0000u0 00000 0      -0.464067       0.215358
          80  ( 1:1:   1/  80)   0 2 0020u0 00000 0       0.063977       0.004093
         161  ( 2:6:   1/   1)   2 2 00000u 00000 0       0.621035       0.385684
         176  ( 2:6:   1/  16)   0 2 00200u 00000 0      -0.085962       0.007390
         515  ( 3:7:   4/  17)   u d 00uu00 000d0 0       0.057783       0.003339
        1001  ( 4:1:  17/  15)   2 0 000u00 00020 0      -0.076759       0.005892
        1379  ( 4:1:  17/  29)   2 0 0000u0 00020 0      -0.063240       0.003999
        2004  ( 4:4:   8/   5)   u d 00u00u 000d0 0      -0.064285       0.004133
        2014  ( 4:4:   8/   6)   u u 00d00u 000d0 0       0.052045       0.002709
        2072  ( 5:6:  16/   1)   2 0 00000u 00020 0       0.085251       0.007268

  The CI coefficients for the MIXED state nr.   7
--------------------------------------------------------------------------------
 CI COEFFICIENTS LARGER THAN  0.50D-01
  Occupation of active orbitals, and spin coupling
  of open shells. (u,d: Spin up or down).
  SGUGA info is (Midvert:IsyUp:UpperWalk/LowerWalk)
        Conf  SGUGA info        Occupation             Coefficient         Weight
         487  ( 3:7:   1/  12)   u u 002000 d0000 0      -0.500266       0.250266
         779  ( 4:1:  11/   7)   2 0 00u000 d00u0 0       0.420080       0.176468
         782  ( 4:1:  14/   7)   2 0 00u000 u00d0 0       0.242534       0.058823
         806  ( 4:1:  11/   8)   0 2 00u000 d00u0 0      -0.429238       0.184246
         809  ( 4:1:  14/   8)   0 2 00u000 u00d0 0      -0.247821       0.061415
        3059  ( 7:7:  26/   1)   u u 000000 d0020 0      -0.516240       0.266503

  The CI coefficients for the MIXED state nr.   8
--------------------------------------------------------------------------------
 CI COEFFICIENTS LARGER THAN  0.50D-01
  Occupation of active orbitals, and spin coupling
  of open shells. (u,d: Spin up or down).
  SGUGA info is (Midvert:IsyUp:UpperWalk/LowerWalk)
        Conf  SGUGA info        Occupation             Coefficient         Weight
         265  ( 2:7:   4/   5)   u d u0d000 000u0 0       0.590844       0.349096
         270  ( 2:7:   4/   6)   u u d0d000 000u0 0      -0.344933       0.118979
         460  ( 3:7:   4/   6)   u d u0u000 000d0 0      -0.364413       0.132797
         465  ( 3:7:   4/   7)   u u d0u000 000d0 0      -0.629252       0.395958

  The CI coefficients for the MIXED state nr.   9
--------------------------------------------------------------------------------
 CI COEFFICIENTS LARGER THAN  0.50D-01
  Occupation of active orbitals, and spin coupling
  of open shells. (u,d: Spin up or down).
  SGUGA info is (Midvert:IsyUp:UpperWalk/LowerWalk)
        Conf  SGUGA info        Occupation             Coefficient         Weight
           1  ( 1:1:   1/   1)   2 2 u00000 00000 0       0.074987       0.005623
          17  ( 1:1:   1/  17)   2 0 u02000 00000 0       0.140064       0.019618
          18  ( 1:1:   1/  18)   0 2 u02000 00000 0      -0.361213       0.130474
         265  ( 2:7:   4/   5)   u d u0d000 000u0 0      -0.270151       0.072981
         270  ( 2:7:   4/   6)   u u d0d000 000u0 0       0.348191       0.121237
         460  ( 3:7:   4/   6)   u d u0u000 000d0 0      -0.410898       0.168837
         465  ( 3:7:   4/   7)   u u d0u000 000d0 0      -0.166994       0.027887
         480  ( 3:7:   4/  10)   u u u0d000 000d0 0       0.544534       0.296518
         623  ( 4:1:  17/   1)   2 0 u00000 00020 0      -0.363926       0.132442
         650  ( 4:1:  17/   2)   0 2 u00000 00020 0       0.143369       0.020555

  The CI coefficients for the MIXED state nr.  10
--------------------------------------------------------------------------------
 CI COEFFICIENTS LARGER THAN  0.50D-01
  Occupation of active orbitals, and spin coupling
  of open shells. (u,d: Spin up or down).
  SGUGA info is (Midvert:IsyUp:UpperWalk/LowerWalk)
        Conf  SGUGA info        Occupation             Coefficient         Weight
         275  ( 2:7:   4/   7)   u d 0ud000 000u0 0      -0.115147       0.013259
         280  ( 2:7:   4/   8)   u u 0dd000 000u0 0       0.078820       0.006213
         475  ( 3:7:   4/   9)   u u 0du000 000d0 0       0.096490       0.009310
         488  ( 3:7:   2/  12)   u u 002000 0d000 0      -0.495112       0.245136
         490  ( 3:7:   4/  12)   u u 002000 000d0 0       0.052840       0.002792
         780  ( 4:1:  12/   7)   2 0 00u000 0d0u0 0       0.414931       0.172168
         783  ( 4:1:  15/   7)   2 0 00u000 0u0d0 0       0.239821       0.057514
         785  ( 4:1:  17/   7)   2 0 00u000 00020 0      -0.053434       0.002855
         807  ( 4:1:  12/   8)   0 2 00u000 0d0u0 0      -0.416384       0.173376
         810  ( 4:1:  15/   8)   0 2 00u000 0u0d0 0      -0.241011       0.058086
        3060  ( 7:7:  27/   1)   u u 000000 0d020 0      -0.500643       0.250644

--

--- Stop Module: caspt2 at Thu Jul  1 15:30:05 2021 /rc=_RC_ALL_IS_WELL_ ---
*** files: xmldump
    saved to directory /home/gayverjr/opencap_examples
--- Module caspt2 spent 3 minutes 5 seconds ---

.##################.
.# Happy landing! #.
.##################.

    Timing: Wall=417.41 User=2960.73 System=80.70
