                  Welcome to Q-Chem
     A Quantum Leap Into The Future Of Chemistry


 Q-Chem 5.3 (devel), Q-Chem, Inc., Pleasanton, CA (2020)

 Yihan Shao,  Zhengting Gan,  E. Epifanovsky,  A. T. B. Gilbert,  M. Wormit,  
 J. Kussmann,  A. W. Lange,  A. Behn,  Jia Deng,  Xintian Feng,  D. Ghosh,  
 M. Goldey,  P. R. Horn,  L. D. Jacobson,  I. Kaliman,  T. Kus,  A. Landau,  
 Jie Liu,  E. I. Proynov,  R. M. Richard,  R. P. Steele,  E. J. Sundstrom,  
 H. L. Woodcock III,  P. M. Zimmerman,  D. Zuev,  B. Alam,  B. Albrecht,  
 A. Aldossary,  E. Alguire,  S. A. Baeppler,  D. Barton,  Z. Benda,  
 Y. A. Bernard,  E. J. Berquist,  K. B. Bravaya,  H. Burton,  K. Carter-Fenk,  
 D. Casanova,  Chun-Min Chang,  Yunqing Chen,  A. Chien,  K. D. Closser,  
 M. P. Coons,  S. Coriani,  S. Dasgupta,  A. L. Dempwolff,  M. Diedenhofen,  
 Hainam Do,  R. G. Edgar,  Po-Tung Fang,  S. Faraji,  S. Fatehi,  
 Qingguo Feng,  J. Fosso-Tande,  J. Gayvert,  Qinghui Ge,  A. Ghysels,  
 G. Gidofalvi,  J. Gomes,  J. Gonthier,  S. Gulania,  A. Gunina,  D. Hait,  
 M. W. D. Hanson-Heine,  S. Hammes-Schiffer,  P. H. P. Harbach,  
 A. W. Hauser,  M. F. Herbst,  J. E. Herr,  E. G. Hohenstein,  Z. C. Holden,  
 S. Houck,  Kerwin Hui,  B. C. Huynh,  M. Ivanov,  T.-C. Jagau,  Hyunjun Ji,  
 B. Kaduk,  K. Khistyaev,  Jaehoon Kim,  P. Klunzinger,  K. Koh,  
 D. Kosenkov,  L. Koulias,  T. Kowalczyk,  C. M. Krauter,  A. Kunitsa,  
 Ka Un Lao,  A. Laurent,  K. V. Lawler,  Joonho Lee,  D. Lefrancois,  
 S. Lehtola,  D. S. Levine,  Yi-Pei Li,  You-Sheng Lin,  Fenglai Liu,  
 Kuan-Yu Liu,  E. Livshits,  M. Loipersberger,  A. Luenser,  A. Manjanath,  
 P. Manohar,  E. Mansoor,  S. F. Manzer,  Shan-Ping Mao,  Yuezhi Mao,  
 N. Mardirossian,  A. V. Marenich,  T. Markovich,  L. A. Martinez-Martinez,  
 S. A. Maurer,  N. J. Mayhall,  S. C. McKenzie,  J.-M. Mewes,  P. Morgante,  
 A. F. Morrison,  J. W. Mullinax,  K. Nanda,  T. S. Nguyen-Beck,  
 R. Olivares-Amaya,  K. J. Oosterbaan,  J. A. Parkhill,  S. K. Paul,  
 F. Pavosevic,  Zheng Pei,  T. M. Perrine,  F. Plasser,  P. Pokhilko,  
 S. Prager,  A. Prociuk,  E. Ramos,  B. Rana,  D. R. Rehn,  F. Rob,  
 E. Rossomme,  M. Scheurer,  M. Schneider,  N. Sergueev,  S. M. Sharada,  
 S. Sharma,  W. Skomorowski,  D. W. Small,  T. Stauch,  C. J. Stein,  
 T. Stein,  Yu-Chuan Su,  S. P. Veccham,  Zhen Tao,  A. J. W. Thom,  
 A. Tkatchenko,  T. Tsuchimochi,  N. M. Tubman,  L. Vogt,  M. L. Vidal,  
 O. Vydrov,  M. A. Watson,  J. Wenzel,  M. de Wergifosse,  T. A. Wesolowski,  
 A. White,  J. Witte,  A. Yamada,  Jun Yang,  K. Yao,  S. Yeganeh,  
 S. R. Yost,  Zhi-Qiang You,  A. Zech,  Igor Ying Zhang,  Xing Zhang,  
 Yan Zhao,  Ying Zhu,  B. R. Brooks,  G. K. L. Chan,  C. J. Cramer,  
 M. S. Gordon,  W. J. Hehre,  A. Klamt,  M. W. Schmidt,  C. D. Sherrill,  
 D. G. Truhlar,  A. Aspuru-Guzik,  R. Baer,  A. T. Bell,  N. A. Besley,  
 Jeng-Da Chai,  A. E. DePrince, III,  R. A. DiStasio Jr.,  A. Dreuw,  
 B. D. Dunietz,  T. R. Furlani,  Chao-Ping Hsu,  Yousung Jung,  Jing Kong,  
 D. S. Lambrecht,  WanZhen Liang,  C. Ochsenfeld,  V. A. Rassolov,  
 L. V. Slipchenko,  J. E. Subotnik,  T. Van Voorhis,  J. M. Herbert,  
 A. I. Krylov,  P. M. W. Gill,  M. Head-Gordon

 Contributors to earlier versions of Q-Chem not listed above: 
 R. D. Adamson,  B. Austin,  J. Baker,  G. J. O. Beran,  K. Brandhorst,  
 S. T. Brown,  E. F. C. Byrd,  A. K. Chakraborty,  C.-L. Cheng,  
 Siu Hung Chien,  D. M. Chipman,  D. L. Crittenden,  H. Dachsel,  
 R. J. Doerksen,  A. D. Dutoi,  L. Fusti-Molnar,  W. A. Goddard III,  
 A. Golubeva-Zadorozhnaya,  S. R. Gwaltney,  G. Hawkins,  A. Heyden,  
 S. Hirata,  G. Kedziora,  F. J. Keil,  C. Kelley,  Jihan Kim,  R. A. King,  
 R. Z. Khaliullin,  P. P. Korambath,  W. Kurlancheek,  A. M. Lee,  M. S. Lee,  
 S. V. Levchenko,  Ching Yeh Lin,  D. Liotard,  R. C. Lochan,  I. Lotan,  
 P. E. Maslen,  N. Nair,  D. P. O'Neill,  D. Neuhauser,  E. Neuscamman,  
 C. M. Oana,  R. Olson,  B. Peters,  R. Peverati,  P. A. Pieniazek,  
 Y. M. Rhee,  J. Ritchie,  M. A. Rohrdanz,  E. Rosta,  N. J. Russ,  
 H. F. Schaefer III,  N. E. Schultz,  N. Shenvi,  A. C. Simmonett,  A. Sodt,  
 D. Stuck,  K. S. Thanthiriwatte,  V. Vanovschi,  Tao Wang,  A. Warshel,  
 C. F. Williams,  Q. Wu,  X. Xu,  W. Zhang

 Please cite Q-Chem as follows:
 Y. Shao et al., Mol. Phys. 113, 184-215 (2015)
 DOI: 10.1080/00268976.2014.952696

 Q-Chem 5.3.2 for Intel X86 EM64T Linux

 Parts of Q-Chem use Armadillo 9.800.1 (Horizon Scraper).
 http://arma.sourceforge.net/

 Q-Chem begins on Wed May 26 21:32:56 2021  

Host: node5
0

     Scratch files written to /scratch/gayverjr/qc_inp.166656386.saved//
Processing $rem in /home/qcsoftware/qchem/builds/qc532_projcap/qchem/config/preferences:
Processing $rem in /home/gayverjr/.qchemrc:
Core orbitals will be frozen

Checking the input file for inconsistencies... 	...done.

--------------------------------------------------------------
User input:
--------------------------------------------------------------
$molecule
0       1
N        0.0     0.0     0.548756750
N        0.0     0.0     -0.548756750
Gh       0.0     0.0     0.0
$end

$rem
JOBTYPE  sp
METHOD   eom-ccsd
BASIS    gen
GUI      2
EA_STATES       [0,0,5,0,0,0,0,0]
CC_TRANS_PROP 2
STATE_ANALYSIS 1
$end

$basis
N       0
aug-cc-pvtz
****
Gh      0
S   1   1.00
      0.0288000              1.0000000
S   1   1.00
      0.0144000              1.0000000
S   1   1.00
      0.0072000              1.0000000
P   1   1.00
      0.0245500              1.0000000
P   1   1.00
      0.0122750              1.0000000
P   1   1.00
      0.0061375              1.0000000
D   1   1.00
      0.0755000              1.0000000
D   1   1.00
      0.0377500              1.0000000
D   1   1.00
      0.0188750              1.0000000
****
$end
--------------------------------------------------------------
 ----------------------------------------------------------------
             Standard Nuclear Orientation (Angstroms)
    I     Atom           X                Y                Z
 ----------------------------------------------------------------
    1      N       0.0000000000     0.0000000000     0.5487567500
    2      N       0.0000000000     0.0000000000    -0.5487567500
    3      GH      0.0000000000     0.0000000000     0.0000000000
 ----------------------------------------------------------------
 Molecular Point Group                 D2h   NOp =  8
 Largest Abelian Subgroup              D2h   NOp =  8
 Nuclear Repulsion Energy =          23.62584454 hartrees
 There are        7 alpha and        7 beta electrons
 Requested basis set is non-standard
 There are 37 shells and 119 basis functions
 Total memory of 2000 MB is distributed as follows: 
   MEM_STATIC is set to 192 MB
   QALLOC/CCMAN JOB total memory use is  1808 MB
 Warning: actual memory use might exceed 2000 MB

 Total QAlloc Memory Limit   2000 MB
 Mega-Array Size       188 MB
 MEM_STATIC part       192 MB

                       Distance Matrix (Angstroms)
             N (  1)   N (  2)
   N (  2)  1.097514
   GH(  3)  0.548757  0.548757

 A cutoff of  1.0D-14 yielded    703 shell pairs
 There are      7347 function pairs (     10218 Cartesian)
 Smallest overlap matrix eigenvalue = 3.78E-05

 Scale SEOQF with 1.000000e-02/1.000000e-02/1.000000e-02

 Standard Electronic Orientation quadrupole field applied
 Guess MOs from core Hamiltonian diagonalization

 -----------------------------------------------------------------------
  General SCF calculation program by
  Eric Jon Sundstrom, Paul Horn, Yuezhi Mao, Dmitri Zuev, Alec White,
  David Stuck, Shaama M.S., Shane Yost, Joonho Lee, David Small,
  Daniel Levine, Susi Lehtola, Hugh Burton, Evgeny Epifanovsky,
  Bang C. Huynh
 -----------------------------------------------------------------------
 Hartree-Fock
 using 16 threads for integral computing
 -------------------------------------------------------
 OpenMP Integral computing Module                
 Release: version 2.0, May 2017, Q-Chem Inc. Pleasanton 
 -------------------------------------------------------
 A restricted SCF calculation will be
 performed using DIIS
 SCF converges when DIIS error is below 1.0e-08
 ---------------------------------------
  Cycle       Energy         DIIS error
 ---------------------------------------
    1     -93.7855397959      1.12e-01  
    2     -84.3041702616      4.25e-02  
    3    -106.9291820499      3.88e-02  
    4    -108.2729659333      2.11e-02  
    5    -108.9611610038      3.04e-03  
    6    -108.9846712460      3.08e-04  
    7    -108.9848631098      3.58e-05  
    8    -108.9848672614      9.86e-06  
    9    -108.9848674687      8.02e-07  
   10    -108.9848674719      1.38e-07  
   11    -108.9848674715      1.10e-08  
   12    -108.9848674703      1.19e-09  Convergence criterion met
 ---------------------------------------
 SCF time:   CPU 15.27s  wall 2.00s 
 SCF   energy in the final basis set =     -108.9848674703
 Total energy in the final basis set =     -108.9848674703


 ------------------------------------------------------------------------------

   CCMAN2: suite of methods based on coupled cluster
           and equation of motion theories.

   Components:
   * libvmm-1.3-trunk
     by Evgeny Epifanovsky, Ilya Kaliman.
   * libtensor-2.5-trunk
     by Evgeny Epifanovsky, Michael Wormit, Dmitry Zuev, Sam Manzer, 
        Ilya Kaliman.
   * libcc-2.5-trunk
     by Evgeny Epifanovsky, Arik Landau, Tomasz Kus, Kirill Khistyaev, 
        Dmitry Zuev, Prashant Manohar, Xintian Feng, Anna Krylov, 
        Matthew Goldey, Alec White, Thomas Jagau, Kaushik Nanda, 
        Anastasia Gunina, Alexander Kunitsa, Joonho Lee.

   CCMAN original authors:
   Anna I. Krylov, C. David Sherrill, Steven R. Gwaltney,
   Edward F. C. Byrd (2000)
   Sergey V. Levchenko, Lyudmila V. Slipchenko, Tao Wang,
   Ana-Maria C. Cristian (2003)
   Piotr A. Pieniazek, C. Melania Oana, Evgeny Epifanovsky (2007)
   Prashant Manohar (2009)

 ------------------------------------------------------------------------------


 Allocating and initializing 1808MB of RAM...
 Calculation will run on 16 cores.


 Alpha MOs, Restricted
 -- Occupied --                  
-15.685 -15.682  -1.472  -0.780  -0.635  -0.614  -0.614
  1 Ag    1 B1u   2 Ag    2 B1u   3 Ag    1 B3u   1 B2u                        
 -- Virtual --                   
  0.009   0.012   0.012   0.012   0.041   0.041   0.041   0.042
  4 Ag    2 B3u   2 B2u   3 B1u   3 B3u   3 B2u   4 B1u   5 Ag                 
  0.049   0.049   0.051   0.054   0.054   0.104   0.106   0.106
  1 B2g   1 B3g   6 Ag    7 Ag    1 B1g   5 B1u   4 B3u   4 B2u                
  0.118   0.119   0.119   0.140   0.157   0.157   0.173   0.173
  8 Ag    2 B2g   2 B3g   9 Ag   10 Ag    2 B1g   3 B2g   3 B3g                
  0.203   0.262   0.262   0.279   0.305   0.316   0.316   0.331
  6 B1u   5 B3u   5 B2u  11 Ag   12 Ag    4 B2g   4 B3g   7 B1u                
  0.354   0.354   0.531   0.542   0.542   0.580   0.582   0.582
 13 Ag    3 B1g  14 Ag    5 B2g   5 B3g   8 B1u   1 Au    9 B1u                
  0.583   0.583   0.650   0.715   0.715   0.719   0.719   0.789
  6 B3u   6 B2u  15 Ag   16 Ag    4 B1g   6 B2g   6 B3g  10 B1u                
  0.847   0.847   1.095   1.157   1.227   1.227   1.308   1.372
  7 B3u   7 B2u  11 B1u  17 Ag    7 B2g   7 B3g  18 Ag    8 B2u                
  1.372   1.477   1.477   1.548   1.548   1.571   1.571   1.667
  8 B3u   9 B3u   9 B2u  19 Ag    5 B1g   2 Au   12 B1u  13 B1u                
  1.720   1.720   1.777   1.777   1.821   1.821   1.826   2.002
  8 B2g   8 B3g  20 Ag    6 B1g   9 B2g   9 B3g  21 Ag   14 B1u                
  2.161   2.161   2.317   2.317   2.600   2.600   2.771   3.107
 10 B3u  10 B2u   3 Au   15 B1u  10 B2g  10 B3g  16 B1u  22 Ag                 
  3.389   3.389   4.048   4.364   4.364   4.447   4.447   4.529
 11 B3u  11 B2u  23 Ag   11 B2g  11 B3g  24 Ag    7 B1g  12 B3u                
  4.529   4.562   4.661   4.661   4.737   5.043   5.043   5.157
 12 B2u  17 B1u  13 B2u  13 B3u  25 Ag   12 B2g  12 B3g   4 Au                 
  5.157   5.202   5.226   5.226   5.532   5.532   5.595   5.595
 18 B1u  19 B1u  26 Ag    8 B1g  13 B2g  13 B3g  14 B3u  14 B2u                
  5.747   5.747   6.773   6.807   6.900   6.900  11.488  19.321
  5 Au   20 B1u  21 B1u  27 Ag   14 B2g  14 B3g  28 Ag   22 B1u                

 Beta MOs, Restricted
 -- Occupied --                  
-15.685 -15.682  -1.472  -0.780  -0.635  -0.614  -0.614
  1 Ag    1 B1u   2 Ag    2 B1u   3 Ag    1 B3u   1 B2u                        
 -- Virtual --                   
  0.009   0.012   0.012   0.012   0.041   0.041   0.041   0.042
  4 Ag    2 B3u   2 B2u   3 B1u   3 B3u   3 B2u   4 B1u   5 Ag                 
  0.049   0.049   0.051   0.054   0.054   0.104   0.106   0.106
  1 B2g   1 B3g   6 Ag    7 Ag    1 B1g   5 B1u   4 B3u   4 B2u                
  0.118   0.119   0.119   0.140   0.157   0.157   0.173   0.173
  8 Ag    2 B2g   2 B3g   9 Ag   10 Ag    2 B1g   3 B2g   3 B3g                
  0.203   0.262   0.262   0.279   0.305   0.316   0.316   0.331
  6 B1u   5 B3u   5 B2u  11 Ag   12 Ag    4 B2g   4 B3g   7 B1u                
  0.354   0.354   0.531   0.542   0.542   0.580   0.582   0.582
 13 Ag    3 B1g  14 Ag    5 B2g   5 B3g   8 B1u   1 Au    9 B1u                
  0.583   0.583   0.650   0.715   0.715   0.719   0.719   0.789
  6 B3u   6 B2u  15 Ag   16 Ag    4 B1g   6 B2g   6 B3g  10 B1u                
  0.847   0.847   1.095   1.157   1.227   1.227   1.308   1.372
  7 B3u   7 B2u  11 B1u  17 Ag    7 B2g   7 B3g  18 Ag    8 B2u                
  1.372   1.477   1.477   1.548   1.548   1.571   1.571   1.667
  8 B3u   9 B3u   9 B2u  19 Ag    5 B1g   2 Au   12 B1u  13 B1u                
  1.720   1.720   1.777   1.777   1.821   1.821   1.826   2.002
  8 B2g   8 B3g  20 Ag    6 B1g   9 B2g   9 B3g  21 Ag   14 B1u                
  2.161   2.161   2.317   2.317   2.600   2.600   2.771   3.107
 10 B3u  10 B2u   3 Au   15 B1u  10 B2g  10 B3g  16 B1u  22 Ag                 
  3.389   3.389   4.048   4.364   4.364   4.447   4.447   4.529
 11 B3u  11 B2u  23 Ag   11 B2g  11 B3g  24 Ag    7 B1g  12 B3u                
  4.529   4.562   4.661   4.661   4.737   5.043   5.043   5.157
 12 B2u  17 B1u  13 B2u  13 B3u  25 Ag   12 B2g  12 B3g   4 Au                 
  5.157   5.202   5.226   5.226   5.532   5.532   5.595   5.595
 18 B1u  19 B1u  26 Ag    8 B1g  13 B2g  13 B3g  14 B3u  14 B2u                
  5.747   5.747   6.773   6.807   6.900   6.900  11.488  19.321
  5 Au   20 B1u  21 B1u  27 Ag   14 B2g  14 B3g  28 Ag   22 B1u                

 Occupation and symmetry of molecular orbitals

 Point group: D2h (8 irreducible representations).

                           Ag   B1g  B2g  B3g  Au   B1u  B2u  B3u   All 
 ------------------------------------------------------------------------
 All molecular orbitals:
  - Alpha                  28   8    14   14   5    22   14   14    119 
  - Beta                   28   8    14   14   5    22   14   14    119 
 ------------------------------------------------------------------------
 Alpha orbitals:
  - Frozen occupied        1    0    0    0    0    1    0    0     2   
  - Active occupied        2    0    0    0    0    1    1    1     5   
  - Active virtual         25   8    14   14   5    20   13   13    112 
  - Frozen virtual         0    0    0    0    0    0    0    0     0   
 ------------------------------------------------------------------------
 Beta orbitals:
  - Frozen occupied        1    0    0    0    0    1    0    0     2   
  - Active occupied        2    0    0    0    0    1    1    1     5   
  - Active virtual         25   8    14   14   5    20   13   13    112 
  - Frozen virtual         0    0    0    0    0    0    0    0     0   
 ------------------------------------------------------------------------

 Import integrals:   CPU 0.00 s  wall 0.00 s

 Import integrals:   CPU 17.01 s  wall 1.53 s

 MP2 amplitudes:   CPU 1.68 s  wall 1.38 s

Running a double precision version
           CCSD T amplitudes will be solved using DIIS.

           Start     Size      MaxIter   EConv     TConv     
           3         7         100       1.00e-06  1.00e-04  
 ------------------------------------------------------------------------------
           Energy (a.u.)   Ediff      Tdiff       Comment
 ------------------------------------------------------------------------------
          -109.36455481                           
     1    -109.34602515   1.85e-02   5.57e-01     
     2    -109.36174354   1.57e-02   8.77e-02     
     3    -109.36011882   1.62e-03   3.21e-02     
     4    -109.36158678   1.47e-03   8.40e-03     Switched to DIIS steps.
     5    -109.36194809   3.61e-04   7.51e-03     
     6    -109.36195454   6.45e-06   1.18e-03     
     7    -109.36195499   4.48e-07   1.93e-04     
     8    -109.36195558   5.94e-07   6.29e-05     
 ------------------------------------------------------------------------------
          -109.36195558                           CCSD T converged.

End of double precision
 SCF energy                 = -108.98486747
 MP2 energy                 = -109.36455481
 CCSD correlation energy    =   -0.37708811
 CCSD total energy          = -109.36195558

 CCSD  T1^2 = 0.0034  T2^2 = 0.1224  Leading amplitudes:

 Amplitude    Orbitals with energies
  0.0158       1 (B3u) A                 ->    7 (B3u) A                  
              -0.6145                          0.8471                     
  0.0158       1 (B3u) B                 ->    7 (B3u) B                  
              -0.6145                          0.8471                     
  0.0158       1 (B2u) A                 ->    7 (B2u) A                  
              -0.6145                          0.8471                     
  0.0158       1 (B2u) B                 ->    7 (B2u) B                  
              -0.6145                          0.8471                     

 Amplitude    Orbitals with energies
 -0.0501       1 (B2u) A     1 (B2u) B   ->    3 (B3g) A     3 (B3g) B    
              -0.6145       -0.6145            0.1730        0.1730       
  0.0501       1 (B2u) A     1 (B2u) B   ->    3 (B3g) B     3 (B3g) A    
              -0.6145       -0.6145            0.1730        0.1730       
  0.0501       1 (B2u) B     1 (B2u) A   ->    3 (B3g) A     3 (B3g) B    
              -0.6145       -0.6145            0.1730        0.1730       
 -0.0501       1 (B2u) B     1 (B2u) A   ->    3 (B3g) B     3 (B3g) A    
              -0.6145       -0.6145            0.1730        0.1730       
 -0.0501       1 (B3u) A     1 (B3u) B   ->    3 (B2g) A     3 (B2g) B    
              -0.6145       -0.6145            0.1730        0.1730       
  0.0501       1 (B3u) A     1 (B3u) B   ->    3 (B2g) B     3 (B2g) A    
              -0.6145       -0.6145            0.1730        0.1730       
  0.0501       1 (B3u) B     1 (B3u) A   ->    3 (B2g) A     3 (B2g) B    
              -0.6145       -0.6145            0.1730        0.1730       
 -0.0501       1 (B3u) B     1 (B3u) A   ->    3 (B2g) B     3 (B2g) A    
              -0.6145       -0.6145            0.1730        0.1730       

 Computing CCSD intermediates for later calculations in double precision
 Finished.

Running a double precision version
           CCSD Lambda amplitudes will be solved using DIIS.
           Start     Size      MaxIter   EConv     LConv     
           3         7         100       1.00e-06  1.00e-04  
 ------------------------------------------------------------------------------
            Enorm      Ldiff       Comment
 ------------------------------------------------------------------------------
     1     3.25e-02   2.53e-02     
     2     5.98e-03   1.82e-03     
     3     1.88e-03   9.00e-04     
     4     5.74e-04   3.94e-04     Switched to DIIS steps.
     5     1.85e-04   1.18e-04     
     6     5.06e-05   4.40e-05     
     7     1.50e-05   8.35e-06     
     8     3.37e-06   2.54e-06     
     9     9.13e-07   2.76e-07     
 ------------------------------------------------------------------------------
                                   CCSD Lambda converged.

 CCSD calculation:   CPU 83.30 s  wall 13.55 s

        Solving for EOMEA-CCSD/MP2 B2g transitions.

Running a double precision version
      EOMEA-CCSD/MP2 right amplitudes will be solved using Davidson.
        Amplitudes will be solved using standard  algorithm.
     Hard-coded thresholds: 
     LinDepThresh=1.00e-15  NormThresh=1.00e-06  ReorthogonThresh=1.00e-02

      Roots     MaxVec    MaxIter   Precond   Conv      Shift    
      5         120       60        1         1.00e-05  0.00e+00  
 ------------------------------------------------------------------------------
      Iter ConvRoots NVecs ResNorm Current eigenvalues (eV)
 ------------------------------------------------------------------------------
      0    0      5     7.73e-02   1.3462   3.5151   5.6227   8.9816   14.9618   
      1    0      10    3.17e-02   1.3319   3.1808   4.6759   8.4954   14.5568   
      2    0      15    2.13e-03   1.3183   2.5923   4.1510   8.1761   14.1506   
      3    1      20    4.54e-04   1.3176*  2.5593   4.1330   8.1534   14.0555   
      4    2      24    3.84e-03   1.3175*  2.5538   4.1297*  8.1457   13.6114   
      5    4      27    4.31e-03   1.3175*  2.5538*  4.1296*  8.1449*  12.4259   
      6    4      28    2.05e-03   1.3175*  2.5538*  4.1296*  8.1449*  11.7323   
      7    4      29    1.90e-03   1.3175*  2.5538*  4.1296*  8.1448*  11.2874   
      8    4      30    1.53e-03   1.3175*  2.5538*  4.1296*  8.1448*  10.9022   
      9    4      31    1.17e-03   1.3175*  2.5538*  4.1296*  8.1449*  10.6072   
      10   4      32    7.37e-04   1.3175*  2.5538*  4.1296*  8.1448*  10.4009   
      11   4      33    5.09e-04   1.3175*  2.5538*  4.1296*  8.1448*  10.2645   
      12   4      34    4.01e-04   1.3175*  2.5538*  4.1296*  8.1448*  10.1580   
      13   4      35    2.23e-04   1.3175*  2.5538*  4.1296*  8.1448*  10.0862   
      14   4      36    9.84e-05   1.3175*  2.5538*  4.1296*  8.1448*  10.0581   
      15   4      37    6.29e-05   1.3175*  2.5538*  4.1296*  8.1448*  10.0450   
      16   4      38    3.27e-05   1.3175*  2.5538*  4.1296*  8.1448*  10.0365   
      17   4      39    1.20e-05   1.3175*  2.5538*  4.1296*  8.1448*  10.0325   
      18   4      40    3.78e-06   1.3175*  2.5538*  4.1296*  8.1448*  10.0313   
      19   5      41    1.35e-06   1.3175*  2.5538*  4.1296*  8.1448*  10.0310*  

     Davidson procedure converged

 EOMEA transition 1/B2g
 Total energy = -109.31353915 a.u.  Excitation energy = 1.3175 eV.
 R1^2 = 0.9984  R2^2 = 0.0016  Res^2 = 6.75e-08
 Conv-d = yes

 Amplitude    Transitions between orbitals
  0.9969       infty       ->    1 (B2g) B                  
 -0.0576       infty       ->    2 (B2g) B                  
 -0.0345       infty       ->    3 (B2g) B                  
  0.0074       infty       ->    4 (B2g) B                  

              Summary of significant orbitals:

               Number  Type             Irrep      Energy
               16      Vir  Beta        1 (B2g)      0.0493
               25      Vir  Beta        2 (B2g)      0.1189
               30      Vir  Beta        3 (B2g)      0.1730
               37      Vir  Beta        4 (B2g)      0.3156


 EOMEA transition 2/B2g
 Total energy = -109.26810570 a.u.  Excitation energy = 2.5538 eV.
 R1^2 = 0.9555  R2^2 = 0.0445  Res^2 = 5.04e-07
 Conv-d = yes

 Amplitude    Transitions between orbitals
 -0.9028       infty       ->    2 (B2g) B                  
 -0.3586       infty       ->    3 (B2g) B                  
  0.0735       infty       ->    4 (B2g) B                  
 -0.0705       infty       ->    1 (B2g) B                  

              Summary of significant orbitals:

               Number  Type             Irrep      Energy
               16      Vir  Beta        1 (B2g)      0.0493
               25      Vir  Beta        2 (B2g)      0.1189
               30      Vir  Beta        3 (B2g)      0.1730
               37      Vir  Beta        4 (B2g)      0.3156


 EOMEA transition 3/B2g
 Total energy = -109.21019423 a.u.  Excitation energy = 4.1296 eV.
 R1^2 = 0.9805  R2^2 = 0.0195  Res^2 = 3.70e-07
 Conv-d = yes

 Amplitude    Transitions between orbitals
  0.9054       infty       ->    3 (B2g) B                  
 -0.3904       infty       ->    2 (B2g) B                  
 -0.0826       infty       ->    4 (B2g) B                  
 -0.0309       infty       ->    5 (B2g) B                  

              Summary of significant orbitals:

               Number  Type             Irrep      Energy
               25      Vir  Beta        2 (B2g)      0.1189
               30      Vir  Beta        3 (B2g)      0.1730
               37      Vir  Beta        4 (B2g)      0.3156
               43      Vir  Beta        5 (B2g)      0.5425


 EOMEA transition 4/B2g
 Total energy = -109.06263865 a.u.  Excitation energy = 8.1448 eV.
 R1^2 = 0.9779  R2^2 = 0.0221  Res^2 = 2.08e-06
 Conv-d = yes

 Amplitude    Transitions between orbitals
 -0.9760       infty       ->    4 (B2g) B                  
 -0.1314       infty       ->    3 (B2g) B                  
 -0.0634       infty       ->    5 (B2g) B                  
 -0.0503       infty       ->    2 (B2g) B                  

              Summary of significant orbitals:

               Number  Type             Irrep      Energy
               25      Vir  Beta        2 (B2g)      0.1189
               30      Vir  Beta        3 (B2g)      0.1730
               37      Vir  Beta        4 (B2g)      0.3156
               43      Vir  Beta        5 (B2g)      0.5425


 EOMEA transition 5/B2g
 Total energy = -108.99332184 a.u.  Excitation energy = 10.0310 eV.
 R1^2 = 0.0002  R2^2 = 0.9998  Res^2 = 3.72e-06
 Conv-d = yes

 Amplitude    Transitions between orbitals
  0.3988       1 (B2u) A   ->    2 (B3u) A     3 (B3g) B    
 -0.3988       1 (B2u) A   ->    3 (B3g) B     2 (B3u) A    
 -0.3961       1 (B3u) A   ->    2 (B3u) A     3 (B2g) B    
  0.3961       1 (B3u) A   ->    3 (B2g) B     2 (B3u) A    
  0.3580       1 (B2u) A   ->    2 (B3u) A     2 (B3g) B    
 -0.3580       1 (B2u) A   ->    2 (B3g) B     2 (B3u) A    
 -0.3552       1 (B3u) A   ->    2 (B3u) A     2 (B2g) B    
  0.3552       1 (B3u) A   ->    2 (B2g) B     2 (B3u) A    
  0.1999       1 (B2u) A   ->    3 (B3g) A     2 (B3u) B    
 -0.1999       1 (B2u) A   ->    2 (B3u) B     3 (B3g) A    
 -0.1998       1 (B2u) B   ->    3 (B3g) B     2 (B3u) B    
  0.1998       1 (B2u) B   ->    2 (B3u) B     3 (B3g) B    
 -0.1986       1 (B3u) A   ->    3 (B2g) A     2 (B3u) B    
  0.1986       1 (B3u) A   ->    2 (B3u) B     3 (B2g) A    
  0.1984       1 (B3u) B   ->    3 (B2g) B     2 (B3u) B    
 -0.1984       1 (B3u) B   ->    2 (B3u) B     3 (B2g) B    
 -0.1794       1 (B2u) B   ->    2 (B3g) B     2 (B3u) B    
  0.1794       1 (B2u) B   ->    2 (B3u) B     2 (B3g) B    
  0.1793       1 (B2u) A   ->    2 (B3g) A     2 (B3u) B    
 -0.1793       1 (B2u) A   ->    2 (B3u) B     2 (B3g) A    
 -0.1780       1 (B3u) A   ->    2 (B2g) A     2 (B3u) B    
  0.1780       1 (B3u) A   ->    2 (B3u) B     2 (B2g) A    
  0.1780       1 (B3u) B   ->    2 (B2g) B     2 (B3u) B    
 -0.1780       1 (B3u) B   ->    2 (B3u) B     2 (B2g) B    
  0.1711       1 (B2u) A   ->    2 (B3u) A     4 (B3g) B    
 -0.1711       1 (B2u) A   ->    4 (B3g) B     2 (B3u) A    
  0.1701       1 (B3u) A   ->    2 (B3u) A     4 (B2g) B    
 -0.1701       1 (B3u) A   ->    4 (B2g) B     2 (B3u) A    

              Summary of significant orbitals:

               Number  Type             Irrep      Energy
               7       Occ  Alpha       1 (B2u)     -0.6145
               6       Occ  Alpha       1 (B3u)     -0.6145
               7       Occ  Beta        1 (B2u)     -0.6145
               6       Occ  Beta        1 (B3u)     -0.6145
               25      Vir  Alpha       2 (B2g)      0.1189
               30      Vir  Alpha       3 (B2g)      0.1730
               26      Vir  Alpha       2 (B3g)      0.1189
               31      Vir  Alpha       3 (B3g)      0.1730
               9       Vir  Alpha       2 (B3u)      0.0118
               25      Vir  Beta        2 (B2g)      0.1189
               30      Vir  Beta        3 (B2g)      0.1730
               37      Vir  Beta        4 (B2g)      0.3156
               26      Vir  Beta        2 (B3g)      0.1189
               31      Vir  Beta        3 (B3g)      0.1730
               38      Vir  Beta        4 (B3g)      0.3156
               9       Vir  Beta        2 (B3u)      0.0118


 EEs and amplitudes of EOMEA can not be exported to fchk file
Running a double precision version
      EOMEA-CCSD/MP2 left amplitudes will be solved using Davidson.
        Amplitudes will be solved using MOM  algorithm.
     Hard-coded thresholds: 
     LinDepThresh=1.00e-15  NormThresh=1.00e-06  ReorthogonThresh=1.00e-02

      Roots     MaxVec    MaxIter   Precond   Conv      Shift    
      5         120       60        1         1.00e-05  0.00e+00  
 ------------------------------------------------------------------------------
      Iter ConvRoots NVecs ResNorm Current eigenvalues (eV)
 ------------------------------------------------------------------------------
      0    0      5     1.58e-03   1.3175   2.5538   4.1296   8.1448   10.0310   
      1    0      10    6.14e-04   1.3175   2.5538   4.1296   8.1448   10.0310   
      2    1      15    7.30e-05   1.3175   2.5538   4.1296   8.1448   10.0310*  
      3    5      19    3.30e-06   1.3175*  2.5538*  4.1296*  8.1448*  10.0310*  

     Davidson procedure converged

 Excited state properties for  EOMEA-CCSD transition 1/B2g
 Dipole moment (a.u.): 0.000000 (X 0.000000, Y 0.000000, Z 0.000000)
 R-squared (a.u.): 170.957673 (XX 63.199343, YY 26.212437, ZZ 81.545894)
 Gauge origin (a.u.): (0.000000, 0.000000, 0.000000)
 Angular momentum (a.u.) against gauge origin: 
 (X 0.000000i, Y 0.000000i, Z 0.000000i)
 Traces of the OPDMs: Tr(AA) 7.000000, Tr(BB) 8.000000

State OPDM analysis using libwa module will be excecuted
 NOs (alpha)
   Occupation of frontier NOs:
      0.0002   0.9997
   Number of electrons:  7.000000
 NOs (beta)
   Occupation of frontier NOs:
      0.0011   0.9981
   Number of electrons:  8.000000
 NOs (spin-traced)
   Occupation of frontier NOs:
      0.9981   1.9994
   Number of electrons: 15.000000
   Number of unpaired electrons: n_u =  1.00269, n_u,nl =  1.00000
   NO participation ratio (PR_NO):  1.009209
 
 Mulliken Population Analysis
 Atom      Charge (e)        Spin (e)
 ------------------------------------
 1  N       -0.925339        0.865535
 2  N       -0.925339        0.865535
 3 GH        0.850678       -0.731070
 ------------------------------------
 Sum:       -1.000000        1.000000
 
 Multipole moment analysis of the density matrix
   Molecular charge:                      -1.000000
   Number of electrons:                   15.000000
     Center of electronic charge [Ang]: [  0.000000,  -0.000000,  -0.000000]
   Total nuclear charge:                  14.000000
     Center of nuclear charge [Ang]:    [  0.000000,   0.000000,   0.000000]
   Dipole moment [D]:                     0.000000
     Cartesian components [D]:          [ -0.000000,   0.000000,   0.000000]
   RMS size of the density [Ang]:         1.786487
     Cartesian components [Ang]:        [  1.086205,   0.699535,   1.233833]
 

 Excited state properties for  EOMEA-CCSD transition 2/B2g
 Dipole moment (a.u.): 0.000000 (X 0.000000, Y 0.000000, Z 0.000000)
 R-squared (a.u.): 73.587084 (XX 21.974070, YY 13.026510, ZZ 38.586504)
 Gauge origin (a.u.): (0.000000, 0.000000, 0.000000)
 Angular momentum (a.u.) against gauge origin: 
 (X 0.000000i, Y 0.000000i, Z 0.000000i)
 Traces of the OPDMs: Tr(AA) 7.000000, Tr(BB) 8.000000

State OPDM analysis using libwa module will be excecuted
 NOs (alpha)
   Occupation of frontier NOs:
      0.0036   0.9953
   Number of electrons:  7.000000
 NOs (beta)
   Occupation of frontier NOs:
      0.0161   0.9699
   Number of electrons:  8.000000
 NOs (spin-traced)
   Occupation of frontier NOs:
      0.0171   0.9715
   Number of electrons: 15.000000
   Number of unpaired electrons: n_u =  1.04335, n_u,nl =  1.00041
   NO participation ratio (PR_NO):  1.152789
 
 Mulliken Population Analysis
 Atom      Charge (e)        Spin (e)
 ------------------------------------
 1  N        0.561739       -0.638418
 2  N        0.561739       -0.638418
 3 GH       -2.123477        2.276836
 ------------------------------------
 Sum:       -1.000000        1.000000
 
 Multipole moment analysis of the density matrix
   Molecular charge:                      -1.000000
   Number of electrons:                   15.000000
     Center of electronic charge [Ang]: [  0.000000,  -0.000000,  -0.000000]
   Total nuclear charge:                  14.000000
     Center of nuclear charge [Ang]:    [  0.000000,   0.000000,   0.000000]
   Dipole moment [D]:                     0.000000
     Cartesian components [D]:          [ -0.000000,   0.000000,   0.000000]
   RMS size of the density [Ang]:         1.172077
     Cartesian components [Ang]:        [  0.640488,   0.493139,   0.848737]
 

 Excited state properties for  EOMEA-CCSD transition 3/B2g
 Dipole moment (a.u.): 0.000000 (X 0.000000, Y 0.000000, Z 0.000000)
 R-squared (a.u.): 121.762922 (XX 44.820030, YY 20.302131, ZZ 56.640760)
 Gauge origin (a.u.): (0.000000, 0.000000, 0.000000)
 Angular momentum (a.u.) against gauge origin: 
 (X 0.000000i, Y 0.000000i, Z 0.000000i)
 Traces of the OPDMs: Tr(AA) 7.000000, Tr(BB) 8.000000

State OPDM analysis using libwa module will be excecuted
 NOs (alpha)
   Occupation of frontier NOs:
      0.0031   0.9964
   Number of electrons:  7.000000
 NOs (beta)
   Occupation of frontier NOs:
      0.0154   0.9775
   Number of electrons:  8.000000
 NOs (spin-traced)
   Occupation of frontier NOs:
      0.9778   1.9945
   Number of electrons: 15.000000
   Number of unpaired electrons: n_u =  1.03295, n_u,nl =  1.00065
   NO participation ratio (PR_NO):  1.115426
 
 Mulliken Population Analysis
 Atom      Charge (e)        Spin (e)
 ------------------------------------
 1  N        2.009453       -2.076244
 2  N        2.009453       -2.076244
 3 GH       -5.018906        5.152489
 ------------------------------------
 Sum:       -1.000000        1.000000
 
 Multipole moment analysis of the density matrix
   Molecular charge:                      -1.000000
   Number of electrons:                   15.000000
     Center of electronic charge [Ang]: [  0.000000,  -0.000000,  -0.000000]
   Total nuclear charge:                  14.000000
     Center of nuclear charge [Ang]:    [  0.000000,   0.000000,   0.000000]
   Dipole moment [D]:                     0.000000
     Cartesian components [D]:          [ -0.000000,   0.000000,   0.000000]
   RMS size of the density [Ang]:         1.507693
     Cartesian components [Ang]:        [  0.914727,   0.615639,   1.028300]
 

 Excited state properties for  EOMEA-CCSD transition 4/B2g
 Dipole moment (a.u.): 0.000000 (X 0.000000, Y 0.000000, Z 0.000000)
 R-squared (a.u.): 103.958921 (XX 35.878385, YY 17.274985, ZZ 50.805551)
 Gauge origin (a.u.): (0.000000, 0.000000, 0.000000)
 Angular momentum (a.u.) against gauge origin: 
 (X 0.000000i, Y 0.000000i, Z 0.000000i)
 Traces of the OPDMs: Tr(AA) 7.000000, Tr(BB) 8.000000

State OPDM analysis using libwa module will be excecuted
 NOs (alpha)
   Occupation of frontier NOs:
      0.0048   0.9939
   Number of electrons:  7.000000
 NOs (beta)
   Occupation of frontier NOs:
      0.0140   0.9758
   Number of electrons:  8.000000
 NOs (spin-traced)
   Occupation of frontier NOs:
      0.0184   0.9759
   Number of electrons: 15.000000
   Number of unpaired electrons: n_u =  1.04347, n_u,nl =  1.00115
   NO participation ratio (PR_NO):  1.142489
 
 Mulliken Population Analysis
 Atom      Charge (e)        Spin (e)
 ------------------------------------
 1  N       -4.207815        4.145163
 2  N       -4.207815        4.145163
 3 GH        7.415631       -7.290325
 ------------------------------------
 Sum:       -1.000000        1.000000
 
 Multipole moment analysis of the density matrix
   Molecular charge:                      -1.000000
   Number of electrons:                   15.000000
     Center of electronic charge [Ang]: [ -0.000000,   0.000000,  -0.000000]
   Total nuclear charge:                  14.000000
     Center of nuclear charge [Ang]:    [  0.000000,   0.000000,   0.000000]
   Dipole moment [D]:                     0.000000
     Cartesian components [D]:          [  0.000000,  -0.000000,   0.000000]
   RMS size of the density [Ang]:         1.393113
     Cartesian components [Ang]:        [  0.818412,   0.567890,   0.973893]
 

 Excited state properties for  EOMEA-CCSD transition 5/B2g
 Dipole moment (a.u.): 0.000000 (X 0.000000, Y 0.000000, Z 0.000000)
 R-squared (a.u.): 336.503420 (XX 185.508216, YY 66.964393, ZZ 84.030811)
 Gauge origin (a.u.): (0.000000, 0.000000, 0.000000)
 Angular momentum (a.u.) against gauge origin: 
 (X 0.000000i, Y 0.000000i, Z 0.000000i)
 Traces of the OPDMs: Tr(AA) 7.000000, Tr(BB) 8.000000

State OPDM analysis using libwa module will be excecuted
 NOs (alpha)
   Occupation of frontier NOs:
      0.5846   0.5896
   Number of electrons:  7.000000
 NOs (beta)
   Occupation of frontier NOs:
      0.4096   0.4148
   Number of electrons:  8.000000
 NOs (spin-traced)
   Occupation of frontier NOs:
      0.9993   1.5013
   Number of electrons: 15.000000
   Number of unpaired electrons: n_u =  2.99927, n_u,nl =  3.22119
   NO participation ratio (PR_NO):  4.544635
 
 Mulliken Population Analysis
 Atom      Charge (e)        Spin (e)
 ------------------------------------
 1  N       -0.066818        0.682881
 2  N       -0.066818        0.682881
 3 GH       -0.866364       -0.365763
 ------------------------------------
 Sum:       -1.000000        1.000000
 
 Multipole moment analysis of the density matrix
   Molecular charge:                      -1.000000
   Number of electrons:                   15.000000
     Center of electronic charge [Ang]: [ -0.000000,   0.000000,  -0.000000]
   Total nuclear charge:                  14.000000
     Center of nuclear charge [Ang]:    [  0.000000,   0.000000,   0.000000]
   Dipole moment [D]:                     0.000000
     Cartesian components [D]:          [  0.000000,  -0.000000,   0.000000]
   RMS size of the density [Ang]:         2.506399
     Cartesian components [Ang]:        [  1.860960,   1.118092,   1.252491]
 

 EOMEA-CCSD calculation:   CPU 136.71 s  wall 21.04 s


 Start computing the transition properties

 ------------------------------------------------------------------------------
 State A: eomea_ccsd/b: 1/B2g
 State B: eomea_ccsd/b: 2/B2g
 Transition dipole moment (a.u.):
   A->B: 0.000000 (X 0.000000, Y 0.000000, Z 0.000000)
   B->A: 0.000000 (X 0.000000, Y 0.000000, Z 0.000000)
 Oscillator strength (a.u.): 0.000000
 Transition angular momentum against gauge origin (a.u.):
   A->B:  (X 0.000000i, Y 0.000000i, Z 0.000000i)
   B->A:  (X 0.000000i, Y 0.000000i, Z 0.000000i)
 Norm of one-particle transition density matrix:
   A->B: 0.979004;   B->A: 0.973386
   ||gamma^AB||*||gamma^BA||: 0.952949

State analysis of transition OPDM (A->B) using libwa module will be excecuted
 
 CT numbers (Mulliken)
   omega =     0.9584 (alpha:     0.0006, beta:     0.9579)
   <Phe> =     0.0027 (alpha:     0.9911, beta:     0.0021)
 
 Exciton analysis of the transition density matrix
 Total:
   Trans. dipole moment [D]:             0.000000
     Cartesian components [D]:         [  0.000000,   0.000000,  -0.000000]
   <r_h> [Ang]:                        [  0.000000,   0.000000,  -0.000000]
   <r_e> [Ang]:                        [  0.000000,   0.000000,  -0.000000]
   |<r_e - r_h>| [Ang]:                  0.000000
   Hole size [Ang]:                      6.072748
     Cartesian components [Ang]:       [  3.940880,   2.275412,   4.021224]
   Electron size [Ang]:                  3.011702
     Cartesian components [Ang]:       [  1.963905,   1.134118,   1.981718]
   RMS electron-hole separation [Ang]:   6.773562
     Cartesian components [Ang]:       [  4.400371,   2.542303,   4.478233]
   Covariance(r_h, r_e) [Ang^2]:         0.033739
   Correlation coefficient:              0.001845
   Center-of-mass size [Ang]:            3.391758
     Cartesian components [Ang]:       [  2.202932,   1.271234,   2.243898]
 
 Alpha spin:
   Trans. dipole moment [D]:             0.000000
     Cartesian components [D]:         [ -0.000000,   0.000000,  -0.000000]
   <r_h> [Ang]:                        [  0.000000,   0.000000,   0.000000]
   <r_e> [Ang]:                        [  0.000000,   0.000000,   0.000000]
   |<r_e - r_h>| [Ang]:                  0.000000
   Hole size [Ang]:                      1.676981
     Cartesian components [Ang]:       [  0.879313,   0.878860,   1.125469]
   Electron size [Ang]:                  1.734861
     Cartesian components [Ang]:       [  0.922571,   0.911833,   1.152026]
   RMS electron-hole separation [Ang]:   1.974711
     Cartesian components [Ang]:       [  1.137034,   1.124893,   1.158126]
   Covariance(r_h, r_e) [Ang^2]:         0.961262
   Correlation coefficient:              0.330407
   Center-of-mass size [Ang]:            1.391450
     Cartesian components [Ang]:       [  0.699252,   0.696829,   0.980616]
 
 Beta spin:
   Trans. dipole moment [D]:             0.000000
     Cartesian components [D]:         [  0.000000,   0.000000,  -0.000000]
   <r_h> [Ang]:                        [  0.000000,   0.000000,  -0.000000]
   <r_e> [Ang]:                        [  0.000000,   0.000000,  -0.000000]
   |<r_e - r_h>| [Ang]:                  0.000000
   Hole size [Ang]:                      6.074442
     Cartesian components [Ang]:       [  3.942010,   2.275996,   4.022343]
   Electron size [Ang]:                  3.012310
     Cartesian components [Ang]:       [  1.964367,   1.134239,   1.982114]
   RMS electron-hole separation [Ang]:   6.775434
     Cartesian components [Ang]:       [  4.401611,   2.542920,   4.479495]
   Covariance(r_h, r_e) [Ang^2]:         0.033179
   Correlation coefficient:              0.001813
   Center-of-mass size [Ang]:            3.392610
     Cartesian components [Ang]:       [  2.203530,   1.271502,   2.244446]

 ------------------------------------------------------------------------------
 State A: eomea_ccsd/b: 1/B2g
 State B: eomea_ccsd/b: 3/B2g
 Transition dipole moment (a.u.):
   A->B: 0.000000 (X 0.000000, Y 0.000000, Z 0.000000)
   B->A: 0.000000 (X 0.000000, Y 0.000000, Z 0.000000)
 Oscillator strength (a.u.): 0.000000
 Transition angular momentum against gauge origin (a.u.):
   A->B:  (X 0.000000i, Y 0.000000i, Z 0.000000i)
   B->A:  (X 0.000000i, Y 0.000000i, Z 0.000000i)
 Norm of one-particle transition density matrix:
   A->B: 0.990110;   B->A: 0.988056
   ||gamma^AB||*||gamma^BA||: 0.978284

State analysis of transition OPDM (A->B) using libwa module will be excecuted
 
 CT numbers (Mulliken)
   omega =     0.9803 (alpha:     0.0002, beta:     0.9801)
   <Phe> =     0.0008 (alpha:     0.9705, beta:     0.0006)
 
 Exciton analysis of the transition density matrix
 Total:
   Trans. dipole moment [D]:             0.000000
     Cartesian components [D]:         [ -0.000000,  -0.000000,   0.000000]
   <r_h> [Ang]:                        [  0.000000,   0.000000,  -0.000000]
   <r_e> [Ang]:                        [  0.000000,  -0.000000,  -0.000000]
   |<r_e - r_h>| [Ang]:                  0.000000
   Hole size [Ang]:                      6.077776
     Cartesian components [Ang]:       [  3.944193,   2.277212,   4.024550]
   Electron size [Ang]:                  4.808631
     Cartesian components [Ang]:       [  3.231347,   1.865668,   3.033250]
   RMS electron-hole separation [Ang]:   7.748736
     Cartesian components [Ang]:       [  5.098087,   2.943859,   5.038464]
   Covariance(r_h, r_e) [Ang^2]:         0.009685
   Correlation coefficient:              0.000331
   Center-of-mass size [Ang]:            3.875618
     Cartesian components [Ang]:       [  2.549806,   1.471948,   2.520372]
 
 Alpha spin:
   Trans. dipole moment [D]:             0.000000
     Cartesian components [D]:         [  0.000000,  -0.000000,   0.000000]
   <r_h> [Ang]:                        [  0.000000,   0.000000,   0.000000]
   <r_e> [Ang]:                        [  0.000000,   0.000000,   0.000000]
   |<r_e - r_h>| [Ang]:                  0.000000
   Hole size [Ang]:                      1.546438
     Cartesian components [Ang]:       [  0.823919,   0.752095,   1.070973]
   Electron size [Ang]:                  1.848137
     Cartesian components [Ang]:       [  1.031588,   0.922172,   1.225168]
   RMS electron-hole separation [Ang]:   1.971663
     Cartesian components [Ang]:       [  1.173822,   1.069876,   1.168317]
   Covariance(r_h, r_e) [Ang^2]:         0.959814
   Correlation coefficient:              0.335831
   Center-of-mass size [Ang]:            1.389848
     Cartesian components [Ang]:       [  0.725978,   0.649512,   0.991347]
 
 Beta spin:
   Trans. dipole moment [D]:             0.000000
     Cartesian components [D]:         [ -0.000000,  -0.000000,   0.000000]
   <r_h> [Ang]:                        [  0.000000,   0.000000,  -0.000000]
   <r_e> [Ang]:                        [  0.000000,  -0.000000,  -0.000000]
   |<r_e - r_h>| [Ang]:                  0.000000
   Hole size [Ang]:                      6.078431
     Cartesian components [Ang]:       [  3.944628,   2.277446,   4.024981]
   Electron size [Ang]:                  4.809103
     Cartesian components [Ang]:       [  3.231682,   1.865830,   3.033543]
   RMS electron-hole separation [Ang]:   7.749572
     Cartesian components [Ang]:       [  5.098643,   2.944153,   5.039014]
   Covariance(r_h, r_e) [Ang^2]:         0.009466
   Correlation coefficient:              0.000324
   Center-of-mass size [Ang]:            3.876007
     Cartesian components [Ang]:       [  2.550076,   1.472084,   2.520617]

 ------------------------------------------------------------------------------
 State A: eomea_ccsd/b: 1/B2g
 State B: eomea_ccsd/b: 4/B2g
 Transition dipole moment (a.u.):
   A->B: 0.000000 (X 0.000000, Y 0.000000, Z 0.000000)
   B->A: 0.000000 (X 0.000000, Y 0.000000, Z 0.000000)
 Oscillator strength (a.u.): 0.000000
 Transition angular momentum against gauge origin (a.u.):
   A->B:  (X 0.000000i, Y 0.000000i, Z 0.000000i)
   B->A:  (X 0.000000i, Y 0.000000i, Z 0.000000i)
 Norm of one-particle transition density matrix:
   A->B: 0.988526;   B->A: 0.986276
   ||gamma^AB||*||gamma^BA||: 0.974959

State analysis of transition OPDM (A->B) using libwa module will be excecuted
 
 CT numbers (Mulliken)
   omega =     0.9772 (alpha:     0.0002, beta:     0.9770)
   <Phe> =     0.0004 (alpha:     0.6800, beta:     0.0002)
 
 Exciton analysis of the transition density matrix
 Total:
   Trans. dipole moment [D]:             0.000000
     Cartesian components [D]:         [  0.000000,  -0.000000,   0.000000]
   <r_h> [Ang]:                        [  0.000000,   0.000000,  -0.000000]
   <r_e> [Ang]:                        [ -0.000000,   0.000000,  -0.000000]
   |<r_e - r_h>| [Ang]:                  0.000000
   Hole size [Ang]:                      6.078618
     Cartesian components [Ang]:       [  3.944744,   2.277510,   4.025113]
   Electron size [Ang]:                  4.272719
     Cartesian components [Ang]:       [  2.822599,   1.629686,   2.762822]
   RMS electron-hole separation [Ang]:   7.429119
     Cartesian components [Ang]:       [  4.850059,   2.800509,   4.881177]
   Covariance(r_h, r_e) [Ang^2]:         0.006950
   Correlation coefficient:              0.000268
   Center-of-mass size [Ang]:            3.715495
     Cartesian components [Ang]:       [  2.425545,   1.400269,   2.441492]
 
 Alpha spin:
   Trans. dipole moment [D]:             0.000000
     Cartesian components [D]:         [  0.000000,  -0.000000,   0.000000]
   <r_h> [Ang]:                        [  0.000000,   0.000000,   0.000000]
   <r_e> [Ang]:                        [  0.000000,   0.000000,   0.000000]
   |<r_e - r_h>| [Ang]:                  0.000000
   Hole size [Ang]:                      1.279210
     Cartesian components [Ang]:       [  0.634966,   0.561684,   0.957971]
   Electron size [Ang]:                  2.344545
     Cartesian components [Ang]:       [  1.350928,   1.144436,   1.536929]
   RMS electron-hole separation [Ang]:   2.255788
     Cartesian components [Ang]:       [  1.357486,   1.179636,   1.361715]
   Covariance(r_h, r_e) [Ang^2]:         1.022347
   Correlation coefficient:              0.340877
   Center-of-mass size [Ang]:            1.514758
     Cartesian components [Ang]:       [  0.808333,   0.681708,   1.084603]
 
 Beta spin:
   Trans. dipole moment [D]:             0.000000
     Cartesian components [D]:         [  0.000000,  -0.000000,   0.000000]
   <r_h> [Ang]:                        [  0.000000,   0.000000,  -0.000000]
   <r_e> [Ang]:                        [ -0.000000,   0.000000,  -0.000000]
   |<r_e - r_h>| [Ang]:                  0.000000
   Hole size [Ang]:                      6.079226
     Cartesian components [Ang]:       [  3.945146,   2.277734,   4.025510]
   Electron size [Ang]:                  4.273031
     Cartesian components [Ang]:       [  2.822826,   1.629773,   2.763021]
   RMS electron-hole separation [Ang]:   7.429825
     Cartesian components [Ang]:       [  4.850527,   2.800750,   4.881649]
   Covariance(r_h, r_e) [Ang^2]:         0.006737
   Correlation coefficient:              0.000259
   Center-of-mass size [Ang]:            3.715819
     Cartesian components [Ang]:       [  2.425770,   1.400381,   2.441697]

 ------------------------------------------------------------------------------
 State A: eomea_ccsd/b: 1/B2g
 State B: eomea_ccsd/b: 5/B2g
 Transition dipole moment (a.u.):
   A->B: 0.000000 (X 0.000000, Y 0.000000, Z 0.000000)
   B->A: 0.000000 (X 0.000000, Y 0.000000, Z 0.000000)
 Oscillator strength (a.u.): 0.000000
 Transition angular momentum against gauge origin (a.u.):
   A->B:  (X 0.000000i, Y 0.000000i, Z 0.000000i)
   B->A:  (X 0.000000i, Y 0.000000i, Z 0.000000i)
 Norm of one-particle transition density matrix:
   A->B: 0.104646;   B->A: 0.106976
   ||gamma^AB||*||gamma^BA||: 0.011195

State analysis of transition OPDM (A->B) using libwa module will be excecuted
 
 CT numbers (Mulliken)
   omega =     0.0110 (alpha:     0.0085, beta:     0.0024)
   <Phe> =    -0.0001 (alpha:     0.0002, beta:    -0.0010)
 
 Exciton analysis of the transition density matrix
 Total:
   Trans. dipole moment [D]:             0.000000
     Cartesian components [D]:         [ -0.000000,   0.000000,  -0.000000]
   <r_h> [Ang]:                        [ -0.000000,   0.000000,   0.000000]
   <r_e> [Ang]:                        [ -0.000000,   0.000000,  -0.000000]
   |<r_e - r_h>| [Ang]:                  0.000000
   Hole size [Ang]:                      1.363143
     Cartesian components [Ang]:       [  0.928004,   0.536134,   0.842335]
   Electron size [Ang]:                  9.011120
     Cartesian components [Ang]:       [  6.976945,   4.028630,   4.036417]
   RMS electron-hole separation [Ang]:   9.106252
     Cartesian components [Ang]:       [  7.029881,   4.064204,   4.121510]
   Covariance(r_h, r_e) [Ang^2]:         0.067313
   Correlation coefficient:              0.005480
   Center-of-mass size [Ang]:            4.560512
     Cartesian components [Ang]:       [  3.523446,   2.032046,   2.062616]
 
 Alpha spin:
   Trans. dipole moment [D]:             0.000000
     Cartesian components [D]:         [  0.000000,  -0.000000,  -0.000000]
   <r_h> [Ang]:                        [ -0.000000,   0.000000,   0.000000]
   <r_e> [Ang]:                        [ -0.000000,   0.000000,  -0.000000]
   |<r_e - r_h>| [Ang]:                  0.000000
   Hole size [Ang]:                      1.027627
     Cartesian components [Ang]:       [  0.724686,   0.418763,   0.596226]
   Electron size [Ang]:                  9.104606
     Cartesian components [Ang]:       [  7.052897,   4.072488,   4.070055]
   RMS electron-hole separation [Ang]:   9.155735
     Cartesian components [Ang]:       [  7.081410,   4.094018,   4.113410]
   Covariance(r_h, r_e) [Ang^2]:         0.061195
   Correlation coefficient:              0.006541
   Center-of-mass size [Ang]:            4.584546
     Cartesian components [Ang]:       [  3.549320,   2.046952,   2.056789]
 
 Beta spin:
   Trans. dipole moment [D]:             0.000000
     Cartesian components [D]:         [ -0.000000,   0.000000,  -0.000000]
   <r_h> [Ang]:                        [ -0.000000,   0.000000,  -0.000000]
   <r_e> [Ang]:                        [ -0.000000,   0.000000,  -0.000000]
   |<r_e - r_h>| [Ang]:                  0.000000
   Hole size [Ang]:                      2.169033
     Cartesian components [Ang]:       [  1.433048,   0.827746,   1.402110]
   Electron size [Ang]:                  8.671237
     Cartesian components [Ang]:       [  6.700470,   3.868985,   3.914716]
   RMS electron-hole separation [Ang]:   8.928438
     Cartesian components [Ang]:       [  6.843890,   3.956592,   4.150127]
   Covariance(r_h, r_e) [Ang^2]:         0.089025
   Correlation coefficient:              0.004733
   Center-of-mass size [Ang]:            4.474179
     Cartesian components [Ang]:       [  3.430052,   1.978244,   2.083164]

 ------------------------------------------------------------------------------
 State A: eomea_ccsd/b: 2/B2g
 State B: eomea_ccsd/b: 3/B2g
 Transition dipole moment (a.u.):
   A->B: 0.000000 (X 0.000000, Y 0.000000, Z 0.000000)
   B->A: 0.000000 (X 0.000000, Y 0.000000, Z 0.000000)
 Oscillator strength (a.u.): 0.000000
 Transition angular momentum against gauge origin (a.u.):
   A->B:  (X 0.000000i, Y 0.000000i, Z 0.000000i)
   B->A:  (X 0.000000i, Y 0.000000i, Z 0.000000i)
 Norm of one-particle transition density matrix:
   A->B: 0.979421;   B->A: 0.982745
   ||gamma^AB||*||gamma^BA||: 0.962521

State analysis of transition OPDM (A->B) using libwa module will be excecuted
 
 CT numbers (Mulliken)
   omega =     0.9593 (alpha:     0.0090, beta:     0.9503)
   <Phe> =     0.0317 (alpha:     0.9911, beta:     0.0226)
 
 Exciton analysis of the transition density matrix
 Total:
   Trans. dipole moment [D]:             0.000000
     Cartesian components [D]:         [ -0.000000,  -0.000000,   0.000000]
   <r_h> [Ang]:                        [  0.000000,   0.000000,  -0.000000]
   <r_e> [Ang]:                        [  0.000000,   0.000000,  -0.000000]
   |<r_e - r_h>| [Ang]:                  0.000000
   Hole size [Ang]:                      3.028672
     Cartesian components [Ang]:       [  1.974221,   1.142713,   1.992364]
   Electron size [Ang]:                  4.739350
     Cartesian components [Ang]:       [  3.183393,   1.839921,   2.990341]
   RMS electron-hole separation [Ang]:   5.616835
     Cartesian components [Ang]:       [  3.741694,   2.164835,   3.586369]
   Covariance(r_h, r_e) [Ang^2]:         0.042730
   Correlation coefficient:              0.002977
   Center-of-mass size [Ang]:            2.816015
     Cartesian components [Ang]:       [  1.875020,   1.083477,   1.800088]
 
 Alpha spin:
   Trans. dipole moment [D]:             0.000000
     Cartesian components [D]:         [  0.000000,  -0.000000,   0.000000]
   <r_h> [Ang]:                        [  0.000000,   0.000000,   0.000000]
   <r_e> [Ang]:                        [  0.000000,   0.000000,   0.000000]
   |<r_e - r_h>| [Ang]:                  0.000000
   Hole size [Ang]:                      1.626194
     Cartesian components [Ang]:       [  0.865780,   0.821616,   1.104481]
   Electron size [Ang]:                  1.745446
     Cartesian components [Ang]:       [  0.951896,   0.889750,   1.161387]
   RMS electron-hole separation [Ang]:   1.947887
     Cartesian components [Ang]:       [  1.142372,   1.080266,   1.149903]
   Covariance(r_h, r_e) [Ang^2]:         0.948411
   Correlation coefficient:              0.334132
   Center-of-mass size [Ang]:            1.377308
     Cartesian components [Ang]:       [  0.708228,   0.664538,   0.976617]
 
 Beta spin:
   Trans. dipole moment [D]:             0.000000
     Cartesian components [D]:         [ -0.000000,  -0.000000,   0.000000]
   <r_h> [Ang]:                        [  0.000000,   0.000000,  -0.000000]
   <r_e> [Ang]:                        [  0.000000,   0.000000,  -0.000000]
   |<r_e - r_h>| [Ang]:                  0.000000
   Hole size [Ang]:                      3.038871
     Cartesian components [Ang]:       [  1.981763,   1.145326,   1.998894]
   Electron size [Ang]:                  4.758725
     Cartesian components [Ang]:       [  3.197101,   1.846590,   3.002351]
   RMS electron-hole separation [Ang]:   5.640205
     Cartesian components [Ang]:       [  3.757740,   2.172527,   3.601586]
   Covariance(r_h, r_e) [Ang^2]:         0.034145
   Correlation coefficient:              0.002361
   Center-of-mass size [Ang]:            2.826150
     Cartesian components [Ang]:       [  1.882623,   1.086676,   1.806098]

 ------------------------------------------------------------------------------
 State A: eomea_ccsd/b: 2/B2g
 State B: eomea_ccsd/b: 4/B2g
 Transition dipole moment (a.u.):
   A->B: 0.000000 (X 0.000000, Y 0.000000, Z 0.000000)
   B->A: 0.000000 (X 0.000000, Y 0.000000, Z 0.000000)
 Oscillator strength (a.u.): 0.000000
 Transition angular momentum against gauge origin (a.u.):
   A->B:  (X 0.000000i, Y 0.000000i, Z 0.000000i)
   B->A:  (X 0.000000i, Y 0.000000i, Z 0.000000i)
 Norm of one-particle transition density matrix:
   A->B: 0.972327;   B->A: 0.975944
   ||gamma^AB||*||gamma^BA||: 0.948937

State analysis of transition OPDM (A->B) using libwa module will be excecuted
 
 CT numbers (Mulliken)
   omega =     0.9454 (alpha:     0.0073, beta:     0.9382)
   <Phe> =     0.0164 (alpha:     0.7702, beta:     0.0106)
 
 Exciton analysis of the transition density matrix
 Total:
   Trans. dipole moment [D]:             0.000000
     Cartesian components [D]:         [  0.000000,  -0.000000,   0.000000]
   <r_h> [Ang]:                        [  0.000000,   0.000000,   0.000000]
   <r_e> [Ang]:                        [ -0.000000,   0.000000,  -0.000000]
   |<r_e - r_h>| [Ang]:                  0.000000
   Hole size [Ang]:                      3.041147
     Cartesian components [Ang]:       [  1.983255,   1.146137,   2.000411]
   Electron size [Ang]:                  4.235879
     Cartesian components [Ang]:       [  2.797210,   1.617332,   2.739073]
   RMS electron-hole separation [Ang]:   5.209105
     Cartesian components [Ang]:       [  3.426126,   1.981462,   3.386774]
   Covariance(r_h, r_e) [Ang^2]:         0.028237
   Correlation coefficient:              0.002192
   Center-of-mass size [Ang]:            2.609967
     Cartesian components [Ang]:       [  1.715884,   0.991538,   1.698389]
 
 Alpha spin:
   Trans. dipole moment [D]:             0.000000
     Cartesian components [D]:         [  0.000000,  -0.000000,   0.000000]
   <r_h> [Ang]:                        [  0.000000,   0.000000,   0.000000]
   <r_e> [Ang]:                        [  0.000000,   0.000000,   0.000000]
   |<r_e - r_h>| [Ang]:                  0.000000
   Hole size [Ang]:                      1.323733
     Cartesian components [Ang]:       [  0.683901,   0.616468,   0.951060]
   Electron size [Ang]:                  2.239629
     Cartesian components [Ang]:       [  1.315375,   1.138136,   1.410804]
   RMS electron-hole separation [Ang]:   2.202969
     Cartesian components [Ang]:       [  1.335323,   1.182450,   1.292980]
   Covariance(r_h, r_e) [Ang^2]:         0.957565
   Correlation coefficient:              0.322992
   Center-of-mass size [Ang]:            1.473375
     Cartesian components [Ang]:       [  0.808205,   0.698675,   1.014639]
 
 Beta spin:
   Trans. dipole moment [D]:             0.000000
     Cartesian components [D]:         [  0.000000,  -0.000000,   0.000000]
   <r_h> [Ang]:                        [  0.000000,   0.000000,   0.000000]
   <r_e> [Ang]:                        [ -0.000000,   0.000000,  -0.000000]
   |<r_e - r_h>| [Ang]:                  0.000000
   Hole size [Ang]:                      3.050671
     Cartesian components [Ang]:       [  1.990005,   1.149285,   2.006394]
   Electron size [Ang]:                  4.247671
     Cartesian components [Ang]:       [  2.805628,   1.620488,   2.746849]
   RMS electron-hole separation [Ang]:   5.225630
     Cartesian components [Ang]:       [  3.437351,   1.986393,   3.397951]
   Covariance(r_h, r_e) [Ang^2]:         0.021045
   Correlation coefficient:              0.001624
   Center-of-mass size [Ang]:            2.616839
     Cartesian components [Ang]:       [  1.721043,   0.993468,   1.702610]

 ------------------------------------------------------------------------------
 State A: eomea_ccsd/b: 2/B2g
 State B: eomea_ccsd/b: 5/B2g
 Transition dipole moment (a.u.):
   A->B: 0.000000 (X 0.000000, Y 0.000000, Z 0.000000)
   B->A: 0.000000 (X 0.000000, Y 0.000000, Z 0.000000)
 Oscillator strength (a.u.): 0.000000
 Transition angular momentum against gauge origin (a.u.):
   A->B:  (X 0.000000i, Y 0.000000i, Z 0.000000i)
   B->A:  (X 0.000000i, Y 0.000000i, Z 0.000000i)
 Norm of one-particle transition density matrix:
   A->B: 0.528346;   B->A: 0.534517
   ||gamma^AB||*||gamma^BA||: 0.282410

State analysis of transition OPDM (A->B) using libwa module will be excecuted
 
 CT numbers (Mulliken)
   omega =     0.2791 (alpha:     0.2230, beta:     0.0561)
   <Phe> =    -0.0002 (alpha:    -0.0001, beta:    -0.0005)
 
 Exciton analysis of the transition density matrix
 Total:
   Trans. dipole moment [D]:             0.000000
     Cartesian components [D]:         [  0.000000,   0.000000,  -0.000000]
   <r_h> [Ang]:                        [ -0.000000,   0.000000,   0.000000]
   <r_e> [Ang]:                        [ -0.000000,   0.000000,  -0.000000]
   |<r_e - r_h>| [Ang]:                  0.000000
   Hole size [Ang]:                      1.059258
     Cartesian components [Ang]:       [  0.751280,   0.433863,   0.607756]
   Electron size [Ang]:                  9.100721
     Cartesian components [Ang]:       [  7.049786,   4.070546,   4.068698]
   RMS electron-hole separation [Ang]:   9.155454
     Cartesian components [Ang]:       [  7.081899,   4.093657,   4.112301]
   Covariance(r_h, r_e) [Ang^2]:         0.061407
   Correlation coefficient:              0.006370
   Center-of-mass size [Ang]:            4.584429
     Cartesian components [Ang]:       [  3.548750,   2.046774,   2.057689]
 
 Alpha spin:
   Trans. dipole moment [D]:             0.000000
     Cartesian components [D]:         [  0.000000,   0.000000,  -0.000000]
   <r_h> [Ang]:                        [ -0.000000,   0.000000,   0.000000]
   <r_e> [Ang]:                        [ -0.000000,   0.000000,  -0.000000]
   |<r_e - r_h>| [Ang]:                  0.000000
   Hole size [Ang]:                      1.056023
     Cartesian components [Ang]:       [  0.749369,   0.432752,   0.605274]
   Electron size [Ang]:                  9.102949
     Cartesian components [Ang]:       [  7.051644,   4.071613,   4.069393]
   RMS electron-hole separation [Ang]:   9.157938
     Cartesian components [Ang]:       [  7.083528,   4.094600,   4.114086]
   Covariance(r_h, r_e) [Ang^2]:         0.055521
   Correlation coefficient:              0.005776
   Center-of-mass size [Ang]:            4.585027
     Cartesian components [Ang]:       [  3.549582,   2.047246,   2.057117]
 
 Beta spin:
   Trans. dipole moment [D]:             0.000000
     Cartesian components [D]:         [  0.000000,   0.000000,  -0.000000]
   <r_h> [Ang]:                        [ -0.000000,   0.000000,   0.000000]
   <r_e> [Ang]:                        [ -0.000000,   0.000000,  -0.000000]
   |<r_e - r_h>| [Ang]:                  0.000000
   Hole size [Ang]:                      1.072010
     Cartesian components [Ang]:       [  0.758824,   0.438247,   0.617519]
   Electron size [Ang]:                  9.091868
     Cartesian components [Ang]:       [  7.042398,   4.066306,   4.065939]
   RMS electron-hole separation [Ang]:   9.145584
     Cartesian components [Ang]:       [  7.075426,   4.089908,   4.105203]
   Covariance(r_h, r_e) [Ang^2]:         0.084788
   Correlation coefficient:              0.008699
   Center-of-mass size [Ang]:            4.582053
     Cartesian components [Ang]:       [  3.545444,   2.044900,   2.059956]

 ------------------------------------------------------------------------------
 State A: eomea_ccsd/b: 3/B2g
 State B: eomea_ccsd/b: 4/B2g
 Transition dipole moment (a.u.):
   A->B: 0.000000 (X 0.000000, Y 0.000000, Z 0.000000)
   B->A: 0.000000 (X 0.000000, Y 0.000000, Z 0.000000)
 Oscillator strength (a.u.): 0.000000
 Transition angular momentum against gauge origin (a.u.):
   A->B:  (X 0.000000i, Y 0.000000i, Z 0.000000i)
   B->A:  (X 0.000000i, Y 0.000000i, Z 0.000000i)
 Norm of one-particle transition density matrix:
   A->B: 0.981473;   B->A: 0.981412
   ||gamma^AB||*||gamma^BA||: 0.963229

State analysis of transition OPDM (A->B) using libwa module will be excecuted
 
 CT numbers (Mulliken)
   omega =     0.9633 (alpha:     0.0027, beta:     0.9606)
   <Phe> =     0.0074 (alpha:     0.8784, beta:     0.0049)
 
 Exciton analysis of the transition density matrix
 Total:
   Trans. dipole moment [D]:             0.000000
     Cartesian components [D]:         [ -0.000000,   0.000000,  -0.000000]
   <r_h> [Ang]:                        [  0.000000,  -0.000000,   0.000000]
   <r_e> [Ang]:                        [ -0.000000,   0.000000,   0.000000]
   |<r_e - r_h>| [Ang]:                  0.000000
   Hole size [Ang]:                      4.825001
     Cartesian components [Ang]:       [  3.242399,   1.872352,   3.043317]
   Electron size [Ang]:                  4.259277
     Cartesian components [Ang]:       [  2.813363,   1.625179,   2.754128]
   RMS electron-hole separation [Ang]:   6.434263
     Cartesian components [Ang]:       [  4.291858,   2.479025,   4.102942]
   Covariance(r_h, r_e) [Ang^2]:         0.011167
   Correlation coefficient:              0.000543
   Center-of-mass size [Ang]:            3.218867
     Cartesian components [Ang]:       [  2.146874,   1.239784,   2.053039]
 
 Alpha spin:
   Trans. dipole moment [D]:             0.000000
     Cartesian components [D]:         [ -0.000000,   0.000000,  -0.000000]
   <r_h> [Ang]:                        [  0.000000,   0.000000,   0.000000]
   <r_e> [Ang]:                        [  0.000000,   0.000000,   0.000000]
   |<r_e - r_h>| [Ang]:                  0.000000
   Hole size [Ang]:                      1.411515
     Cartesian components [Ang]:       [  0.742885,   0.693569,   0.979519]
   Electron size [Ang]:                  2.090308
     Cartesian components [Ang]:       [  1.214082,   1.088322,   1.308031]
   RMS electron-hole separation [Ang]:   2.119197
     Cartesian components [Ang]:       [  1.269984,   1.162809,   1.235320]
   Covariance(r_h, r_e) [Ang^2]:         0.935382
   Correlation coefficient:              0.317025
   Center-of-mass size [Ang]:            1.434619
     Cartesian components [Ang]:       [  0.780847,   0.703357,   0.976575]
 
 Beta spin:
   Trans. dipole moment [D]:             0.000000
     Cartesian components [D]:         [ -0.000000,   0.000000,  -0.000000]
   <r_h> [Ang]:                        [  0.000000,  -0.000000,   0.000000]
   <r_e> [Ang]:                        [ -0.000000,   0.000000,   0.000000]
   |<r_e - r_h>| [Ang]:                  0.000000
   Hole size [Ang]:                      4.831166
     Cartesian components [Ang]:       [  3.246692,   1.874609,   3.047130]
   Electron size [Ang]:                  4.263796
     Cartesian components [Ang]:       [  2.816563,   1.626432,   2.757109]
   RMS electron-hole separation [Ang]:   6.442279
     Cartesian components [Ang]:       [  4.297331,   2.481727,   4.108156]
   Covariance(r_h, r_e) [Ang^2]:         0.008583
   Correlation coefficient:              0.000417
   Center-of-mass size [Ang]:            3.222471
     Cartesian components [Ang]:       [  2.149477,   1.240959,   2.055259]

 ------------------------------------------------------------------------------
 State A: eomea_ccsd/b: 3/B2g
 State B: eomea_ccsd/b: 5/B2g
 Transition dipole moment (a.u.):
   A->B: 0.000000 (X 0.000000, Y 0.000000, Z 0.000000)
   B->A: 0.000000 (X 0.000000, Y 0.000000, Z 0.000000)
 Oscillator strength (a.u.): 0.000000
 Transition angular momentum against gauge origin (a.u.):
   A->B:  (X 0.000000i, Y 0.000000i, Z 0.000000i)
   B->A:  (X 0.000000i, Y 0.000000i, Z 0.000000i)
 Norm of one-particle transition density matrix:
   A->B: 0.262234;   B->A: 0.267949
   ||gamma^AB||*||gamma^BA||: 0.070265

State analysis of transition OPDM (A->B) using libwa module will be excecuted
 
 CT numbers (Mulliken)
   omega =     0.0688 (alpha:     0.0548, beta:     0.0140)
   <Phe> =     0.0003 (alpha:     0.0002, beta:     0.0007)
 
 Exciton analysis of the transition density matrix
 Total:
   Trans. dipole moment [D]:             0.000000
     Cartesian components [D]:         [ -0.000000,  -0.000000,   0.000000]
   <r_h> [Ang]:                        [ -0.000000,   0.000000,   0.000000]
   <r_e> [Ang]:                        [ -0.000000,   0.000000,  -0.000000]
   |<r_e - r_h>| [Ang]:                  0.000000
   Hole size [Ang]:                      1.144405
     Cartesian components [Ang]:       [  0.816741,   0.471657,   0.648180]
   Electron size [Ang]:                  9.091725
     Cartesian components [Ang]:       [  7.042441,   4.066252,   4.065599]
   RMS electron-hole separation [Ang]:   9.157397
     Cartesian components [Ang]:       [  7.082292,   4.093583,   4.116023]
   Covariance(r_h, r_e) [Ang^2]:         0.055605
   Correlation coefficient:              0.005344
   Center-of-mass size [Ang]:            4.584767
     Cartesian components [Ang]:       [  3.548494,   2.046723,   2.058932]
 
 Alpha spin:
   Trans. dipole moment [D]:             0.000000
     Cartesian components [D]:         [ -0.000000,  -0.000000,   0.000000]
   <r_h> [Ang]:                        [ -0.000000,   0.000000,   0.000000]
   <r_e> [Ang]:                        [ -0.000000,   0.000000,  -0.000000]
   |<r_e - r_h>| [Ang]:                  0.000000
   Hole size [Ang]:                      1.109918
     Cartesian components [Ang]:       [  0.795088,   0.459153,   0.623644]
   Electron size [Ang]:                  9.103282
     Cartesian components [Ang]:       [  7.051930,   4.071723,   4.069533]
   RMS electron-hole separation [Ang]:   9.165010
     Cartesian components [Ang]:       [  7.089217,   4.097598,   4.117049]
   Covariance(r_h, r_e) [Ang^2]:         0.052124
   Correlation coefficient:              0.005159
   Center-of-mass size [Ang]:            4.588189
     Cartesian components [Ang]:       [  3.551998,   2.048731,   2.058516]
 
 Beta spin:
   Trans. dipole moment [D]:             0.000000
     Cartesian components [D]:         [ -0.000000,   0.000000,   0.000000]
   <r_h> [Ang]:                        [ -0.000000,   0.000000,  -0.000000]
   <r_e> [Ang]:                        [ -0.000000,   0.000000,  -0.000000]
   |<r_e - r_h>| [Ang]:                  0.000000
   Hole size [Ang]:                      1.270760
     Cartesian components [Ang]:       [  0.896695,   0.517828,   0.736630]
   Electron size [Ang]:                  9.046221
     Cartesian components [Ang]:       [  7.005072,   4.044702,   4.050120]
   RMS electron-hole separation [Ang]:   9.127453
     Cartesian components [Ang]:       [  7.055041,   4.077782,   4.111993]
   Covariance(r_h, r_e) [Ang^2]:         0.069273
   Correlation coefficient:              0.006026
   Center-of-mass size [Ang]:            4.571310
     Cartesian components [Ang]:       [  3.534706,   2.038824,   2.060564]

 ------------------------------------------------------------------------------
 State A: eomea_ccsd/b: 4/B2g
 State B: eomea_ccsd/b: 5/B2g
 Transition dipole moment (a.u.):
   A->B: 0.000000 (X 0.000000, Y 0.000000, Z 0.000000)
   B->A: 0.000000 (X 0.000000, Y 0.000000, Z 0.000000)
 Oscillator strength (a.u.): 0.000000
 Transition angular momentum against gauge origin (a.u.):
   A->B:  (X 0.000000i, Y 0.000000i, Z 0.000000i)
   B->A:  (X 0.000000i, Y 0.000000i, Z 0.000000i)
 Norm of one-particle transition density matrix:
   A->B: 0.122663;   B->A: 0.124679
   ||gamma^AB||*||gamma^BA||: 0.015294

State analysis of transition OPDM (A->B) using libwa module will be excecuted
 
 CT numbers (Mulliken)
   omega =     0.0150 (alpha:     0.0118, beta:     0.0032)
   <Phe> =     0.0205 (alpha:     0.0107, beta:     0.0566)
 
 Exciton analysis of the transition density matrix
 Total:
   Trans. dipole moment [D]:             0.000000
     Cartesian components [D]:         [ -0.000000,  -0.000000,  -0.000000]
   <r_h> [Ang]:                        [ -0.000000,   0.000000,   0.000000]
   <r_e> [Ang]:                        [ -0.000000,   0.000000,  -0.000000]
   |<r_e - r_h>| [Ang]:                  0.000000
   Hole size [Ang]:                      1.606945
     Cartesian components [Ang]:       [  1.181659,   0.682749,   0.848416]
   Electron size [Ang]:                  9.015824
     Cartesian components [Ang]:       [  6.981631,   4.031124,   4.036330]
   RMS electron-hole separation [Ang]:   9.151801
     Cartesian components [Ang]:       [  7.071666,   4.088654,   4.126731]
   Covariance(r_h, r_e) [Ang^2]:         0.055948
   Correlation coefficient:              0.003862
   Center-of-mass size [Ang]:            4.582010
     Cartesian components [Ang]:       [  3.545085,   2.044206,   2.061166]
 
 Alpha spin:
   Trans. dipole moment [D]:             0.000000
     Cartesian components [D]:         [ -0.000000,  -0.000000,   0.000000]
   <r_h> [Ang]:                        [ -0.000000,   0.000000,   0.000000]
   <r_e> [Ang]:                        [ -0.000000,   0.000000,  -0.000000]
   |<r_e - r_h>| [Ang]:                  0.000000
   Hole size [Ang]:                      1.524299
     Cartesian components [Ang]:       [  1.134828,   0.655754,   0.778229]
   Electron size [Ang]:                  9.077090
     Cartesian components [Ang]:       [  7.031597,   4.059968,   4.057938]
   RMS electron-hole separation [Ang]:   9.197258
     Cartesian components [Ang]:       [  7.113232,   4.112704,   4.132453]
   Covariance(r_h, r_e) [Ang^2]:         0.063743
   Correlation coefficient:              0.004607
   Center-of-mass size [Ang]:            4.605555
     Cartesian components [Ang]:       [  3.565961,   2.056233,   2.065662]
 
 Beta spin:
   Trans. dipole moment [D]:             0.000000
     Cartesian components [D]:         [ -0.000000,  -0.000000,  -0.000000]
   <r_h> [Ang]:                        [ -0.000000,   0.000000,   0.000000]
   <r_e> [Ang]:                        [ -0.000000,   0.000000,   0.000000]
   |<r_e - r_h>| [Ang]:                  0.000000
   Hole size [Ang]:                      1.880793
     Cartesian components [Ang]:       [  1.340414,   0.774273,   1.068258]
   Electron size [Ang]:                  8.786010
     Cartesian components [Ang]:       [  6.794038,   3.922829,   3.955559]
   RMS electron-hole separation [Ang]:   8.982038
     Cartesian components [Ang]:       [  6.916096,   3.998641,   4.105544]
   Covariance(r_h, r_e) [Ang^2]:         0.027178
   Correlation coefficient:              0.001645
   Center-of-mass size [Ang]:            4.494044
     Cartesian components [Ang]:       [  3.466948,   1.999190,   2.044490]


 All requested transition properties have been computed

 Transition Properties:   CPU 41.19 s  wall 5.83 s

 Total ccman2 time:   CPU 299.37 s  wall 45.56 s


 --------------------------------------------------------------
             Orbital Energies (a.u.) and Symmetries
 --------------------------------------------------------------

 Alpha MOs, Restricted
 -- Occupied --                  
-15.685 -15.682  -1.472  -0.780  -0.635  -0.614  -0.614
  1 Ag    1 B1u   2 Ag    2 B1u   3 Ag    1 B3u   1 B2u                        
 -- Virtual --                   
  0.009   0.012   0.012   0.012   0.041   0.041   0.041   0.042
  4 Ag    2 B3u   2 B2u   3 B1u   3 B3u   3 B2u   4 B1u   5 Ag                 
  0.049   0.049   0.051   0.054   0.054   0.104   0.106   0.106
  1 B2g   1 B3g   6 Ag    7 Ag    1 B1g   5 B1u   4 B3u   4 B2u                
  0.118   0.119   0.119   0.140   0.157   0.157   0.173   0.173
  8 Ag    2 B2g   2 B3g   9 Ag   10 Ag    2 B1g   3 B2g   3 B3g                
  0.203   0.262   0.262   0.279   0.305   0.316   0.316   0.331
  6 B1u   5 B3u   5 B2u  11 Ag   12 Ag    4 B2g   4 B3g   7 B1u                
  0.354   0.354   0.531   0.542   0.542   0.580   0.582   0.582
 13 Ag    3 B1g  14 Ag    5 B2g   5 B3g   8 B1u   1 Au    9 B1u                
  0.583   0.583   0.650   0.715   0.715   0.719   0.719   0.789
  6 B3u   6 B2u  15 Ag   16 Ag    4 B1g   6 B2g   6 B3g  10 B1u                
  0.847   0.847   1.095   1.157   1.227   1.227   1.308   1.372
  7 B3u   7 B2u  11 B1u  17 Ag    7 B2g   7 B3g  18 Ag    8 B2u                
  1.372   1.477   1.477   1.548   1.548   1.571   1.571   1.667
  8 B3u   9 B3u   9 B2u  19 Ag    5 B1g   2 Au   12 B1u  13 B1u                
  1.720   1.720   1.777   1.777   1.821   1.821   1.826   2.002
  8 B2g   8 B3g  20 Ag    6 B1g   9 B2g   9 B3g  21 Ag   14 B1u                
  2.161   2.161   2.317   2.317   2.600   2.600   2.771   3.107
 10 B3u  10 B2u   3 Au   15 B1u  10 B2g  10 B3g  16 B1u  22 Ag                 
  3.389   3.389   4.048   4.364   4.364   4.447   4.447   4.529
 11 B3u  11 B2u  23 Ag   11 B2g  11 B3g  24 Ag    7 B1g  12 B3u                
  4.529   4.562   4.661   4.661   4.737   5.043   5.043   5.157
 12 B2u  17 B1u  13 B2u  13 B3u  25 Ag   12 B2g  12 B3g   4 Au                 
  5.157   5.202   5.226   5.226   5.532   5.532   5.595   5.595
 18 B1u  19 B1u  26 Ag    8 B1g  13 B2g  13 B3g  14 B3u  14 B2u                
  5.747   5.747   6.773   6.807   6.900   6.900  11.488  19.321
  5 Au   20 B1u  21 B1u  27 Ag   14 B2g  14 B3g  28 Ag   22 B1u                

 Beta MOs, Restricted
 -- Occupied --                  
-15.685 -15.682  -1.472  -0.780  -0.635  -0.614  -0.614
  1 Ag    1 B1u   2 Ag    2 B1u   3 Ag    1 B3u   1 B2u                        
 -- Virtual --                   
  0.009   0.012   0.012   0.012   0.041   0.041   0.041   0.042
  4 Ag    2 B3u   2 B2u   3 B1u   3 B3u   3 B2u   4 B1u   5 Ag                 
  0.049   0.049   0.051   0.054   0.054   0.104   0.106   0.106
  1 B2g   1 B3g   6 Ag    7 Ag    1 B1g   5 B1u   4 B3u   4 B2u                
  0.118   0.119   0.119   0.140   0.157   0.157   0.173   0.173
  8 Ag    2 B2g   2 B3g   9 Ag   10 Ag    2 B1g   3 B2g   3 B3g                
  0.203   0.262   0.262   0.279   0.305   0.316   0.316   0.331
  6 B1u   5 B3u   5 B2u  11 Ag   12 Ag    4 B2g   4 B3g   7 B1u                
  0.354   0.354   0.531   0.542   0.542   0.580   0.582   0.582
 13 Ag    3 B1g  14 Ag    5 B2g   5 B3g   8 B1u   1 Au    9 B1u                
  0.583   0.583   0.650   0.715   0.715   0.719   0.719   0.789
  6 B3u   6 B2u  15 Ag   16 Ag    4 B1g   6 B2g   6 B3g  10 B1u                
  0.847   0.847   1.095   1.157   1.227   1.227   1.308   1.372
  7 B3u   7 B2u  11 B1u  17 Ag    7 B2g   7 B3g  18 Ag    8 B2u                
  1.372   1.477   1.477   1.548   1.548   1.571   1.571   1.667
  8 B3u   9 B3u   9 B2u  19 Ag    5 B1g   2 Au   12 B1u  13 B1u                
  1.720   1.720   1.777   1.777   1.821   1.821   1.826   2.002
  8 B2g   8 B3g  20 Ag    6 B1g   9 B2g   9 B3g  21 Ag   14 B1u                
  2.161   2.161   2.317   2.317   2.600   2.600   2.771   3.107
 10 B3u  10 B2u   3 Au   15 B1u  10 B2g  10 B3g  16 B1u  22 Ag                 
  3.389   3.389   4.048   4.364   4.364   4.447   4.447   4.529
 11 B3u  11 B2u  23 Ag   11 B2g  11 B3g  24 Ag    7 B1g  12 B3u                
  4.529   4.562   4.661   4.661   4.737   5.043   5.043   5.157
 12 B2u  17 B1u  13 B2u  13 B3u  25 Ag   12 B2g  12 B3g   4 Au                 
  5.157   5.202   5.226   5.226   5.532   5.532   5.595   5.595
 18 B1u  19 B1u  26 Ag    8 B1g  13 B2g  13 B3g  14 B3u  14 B2u                
  5.747   5.747   6.773   6.807   6.900   6.900  11.488  19.321
  5 Au   20 B1u  21 B1u  27 Ag   14 B2g  14 B3g  28 Ag   22 B1u                
 --------------------------------------------------------------

          Ground-State Mulliken Net Atomic Charges

     Atom                 Charge (a.u.)
  ----------------------------------------
      1 N                    -0.060738
      2 N                    -0.060738
      3 GH                    0.121477
  ----------------------------------------
  Sum of atomic charges =     0.000000

 -----------------------------------------------------------------
                    Cartesian Multipole Moments
 -----------------------------------------------------------------
    Charge (ESU x 10^10)
                 0.0000
    Dipole Moment (Debye)
         X       0.0000      Y       0.0000      Z      -0.0000
       Tot       0.0000
    Quadrupole Moments (Debye-Ang)
        XX     -10.3959     XY      -0.0000     YY     -10.3959
        XZ      -0.0000     YZ       0.0000     ZZ     -11.6464
    Octopole Moments (Debye-Ang^2)
       XXX       0.0000    XXY       0.0000    XYY       0.0000
       YYY       0.0000    XXZ      -0.0000    XYZ      -0.0000
       YYZ      -0.0000    XZZ       0.0000    YZZ      -0.0000
       ZZZ      -0.0000
    Hexadecapole Moments (Debye-Ang^3)
      XXXX      -9.3164   XXXY       0.0000   XXYY      -3.1055
      XYYY       0.0000   YYYY      -9.3164   XXXZ      -0.0000
      XXYZ       0.0000   XYYZ      -0.0000   YYYZ       0.0000
      XXZZ      -6.3215   XYZZ       0.0000   YYZZ      -6.3215
      XZZZ      -0.0000   YZZZ       0.0000   ZZZZ     -31.5642
 -----------------------------------------------------------------
Archival summary:
1\1\node5\SP\ProcedureUnspecified\BasisUnspecified\2h1\gayverjr\WedMay2621:33:452021WedMay2621:33:452021\0\\#,ProcedureUnspecified,BasisUnspecified,\\0,1\N\Gh,1,0.548757\N,2,0.548757,1,180\\HF=-108.984867\\@

 Total job time:  49.19s(wall), 321.33s(cpu) 
 Wed May 26 21:33:45 2021

        *************************************************************
        *                                                           *
        *  Thank you very much for using Q-Chem.  Have a nice day.  *
        *                                                           *
        *************************************************************


