*******************************************************
*** WorkDir is not cleaned in parallel environment! ***
*******************************************************
   This run of MOLCAS is using the pymolcas driver

                             OPE
                             OPE          NMOL  CASOP  ENMOLC A   SO
                 OPE        NMOLC        AS  OP EN  MO LC     AS  OP
                OPENM       OL CA        SO  PE NM  OL CA     SOP EN
                OP EN      MO   LC       AS  OP ENMOL  CASO   PENMOL
                OP  EN     MO   LC       AS  OP EN     MO     LC ASO
               OP   E  NMOL  C  AS       OP  EN MO     LC     AS  OP
               OP  E   NMO   LC AS        OPEN  MO     LCASOP EN   M
               O  PEN   MO  LCA  SO
            OPE   NMO   L   CAS    OP
        OPENMOL  CASOP     ENMOL   CASOPE
     OPENMOLCA   SOPENMOLCASOPEN   MOLCASOPE
    OPENMOLCAS   OP           EN   MOL    CAS
    OPENMOLCAS       OP  ENM        O     LCA
    OPENMOLCAS    OPEN  MOLCASO     P  E  NMO
    OPENMOLCAS     OP               E  N  MOL
    OPENMOLCA   SO           PENM   O  L  CAS    OPEN    MO    LCAS
    OPENMOLCA   SOP           ENM   O  L  CAS   OP  EN  MOLC  AS   O
    OPENMOLCA   SOPE           NM      O  LCA   S      OP  EN MO
    OPENMOLC                AS         O  PEN   M      OL  CA  SOPE
    OPENMO        LCASOPE  NMOL        C  ASO   P      ENMOLC     AS
    OPE     NMO      LCA  SO     P     E   NM   OL  CA SO  PE N   MO
          OPENMOLCA            SOPE   NMO        LCAS  O    P  ENMO
     OPENMOLCASOPENMOLCASOPENMOLCASOPENMOLCA
        OPENMOLCASOPENMOLCASOPENMOLCASOPE
            OPENMOLCASOPENMOLCASOPENM
               OPENMOLCASOPENMOLCA        version: 21.02
                   OPENMOLCASO
                       OPE                tag: 957-gb1e1fa9

 OpenMolcas is free software; you can redistribute it and/or modify it
 under the terms of the GNU Lesser General Public License version 2.1.
 OpenMolcas is distributed in the hope that it will be useful, but it
 is provided "as is" and without any express or implied warranties.
 For more details see the full text of the license in the file
 LICENSE or in <http://www.gnu.org/licenses/>.

                 Copyright (C) The OpenMolcas Authors
           For the author list and the recommended citation,
                   consult the file CONTRIBUTORS.md

           *************************************************
           * pymolcas version py2.18                       *
           *   build 7a16d2f9e823a0c2ad601740b42a4b0e      *
           *   (after the EMIL interpreter by V. Veryazov) *
           *************************************************

configuration info
------------------
Host name: dirac.bu.edu (Linux)
C Compiler ID: GNU
C flags: -std=gnu99 -fopenmp
Fortran Compiler ID: GNU
Fortran flags: -fno-aggressive-loop-optimizations -cpp -fdefault-integer-8 -fopenmp
Definitions: _MOLCAS_;_I8_;_LINUX_;_DMRG_
Parallel: OFF (GA=OFF)


   ---------------------------------------------------------------------------
  |
  |             Project: xms
  |      Submitted from: /scratch/gayverjr/xms.905791322
  |        Scratch area: /scratch/gayverjr/xms.905791322
  |     Save outputs to: /home/gayverjr/final_opencap_examples/openmolcas/symm
  |              Molcas: /home/qcsoftware/OpenMolcas/qcmaquis_build/build
  |
  | Scratch area is NOT empty
  |
  |      MOLCAS_DRIVER = /home/qcsoftware/bin/pymolcas
  | MOLCAS_NEW_WORKDIR = YES
  |      MOLCAS_NPROCS = 16
  |      MOLCAS_SOURCE = /home/qcsoftware/OpenMolcas/Molcas_src
  |   MOLCAS_STRUCTURE = 0
  |
   ---------------------------------------------------------------------------

++ ---------   Input file   ---------

&GATEWAY
Expert
Basis set
 N.aug-cc-pvtz
 N1  0.0  0.0  1.039
End of Basis
Basis set
X ..... / inline
   0.00   2
    3    3
               0.0288
               0.0144
               0.0072
      1.00000000             0.00000000             0.00000000
      0.00000000             1.00000000             0.00000000
      0.00000000             0.00000000             1.00000000
     3    3
               0.02455
               0.012275
               0.0061375
     1.00000000             0.00000000             0.00000000
     0.00000000             1.00000000             0.00000000
     0.00000000             0.00000000             1.00000000
     3    3
               0.0755
               0.03775
               0.018875
      1.000000E+00           0.000000E+00           0.000000E+00           0.00000000
      0.000000E+00           1.000000E+00           0.000000E+00           0.00000000
      0.000000E+00           0.000000E+00           1.000000E+00           0.00000000
X1  0.000  0.000  0.000
End of basis
Symmetry
x y z

&SEWARD

&SCF

&MBPT2
PRPT

>>> COPY /home/gayverjr/final_opencap_examples/openmolcas/symm/$Project.MP2Orb INPORB

&RASSCF
LUMORB
Title = cas 5,13 test
Inactive = 3 0 0 0 2 0 0 0
Ras2= 0 1 1 0 0 1 1 0
NActEl=4,0,0

>>> COPY /home/gayverjr/final_opencap_examples/openmolcas/symm/$Project.RasOrb INPORB

&RASSCF
LUMORB
Inactive = 3 0 0 0 2 0 0 0
Ras2= 0 1 1 0 0 4 4 0
TDM
Symmetry = 6
Charge = -1
CIROOT= 10 10 1
SPIN=2

&CASPT2
Maxiter = 50
XMULtistate = all

&RASSI
TRD1

>>> COPY /home/gayverjr/final_opencap_examples/openmolcas/symm/$Project.RasOrb INPORB

&RASSCF
LUMORB
Inactive = 3 0 0 0 2 0 0 0
Ras2= 0 1 1 0 0 4 4 0
CIONLY
NActEl=4,0,0
Spin = 1

&CASPT2

-- ----------------------------------

--- Start Module: gateway at Thu May 13 19:25:11 2021 ---

()()()()()()()()()()()()()()()()()()()()()()()()()()()()()()()()()()()()()()()()()()()()()()()()()()

                                              &GATEWAY

                                   only a single process is used
                       available to each process: 20 GB of memory, 16 threads
                                             pid: 20225
()()()()()()()()()()()()()()()()()()()()()()()()()()()()()()()()()()()()()()()()()()()()()()()()()()

 ###############################################################################
 ###############################################################################
 ###                                                                         ###
 ###                                                                         ###
 ###    WARNING:  EXPERT option is ON!                                       ###
 ###                                                                         ###
 ###                                                                         ###
 ###############################################################################
 ###############################################################################
 GuessOrb option turned off!

++    Symmetry information:
      ---------------------

                    --- Group Generators ---
                    Reflection in the yz-plane  
                    Reflection in the xz-plane  
                    Reflection in the xy-plane  

                    Character Table for D2h

                             E   s(yz) s(xz) C2(z) s(xy) C2(y) C2(x)   i  
                    ag       1     1     1     1     1     1     1     1  
                    b3u      1    -1     1    -1     1    -1     1    -1  x
                    b2u      1     1    -1    -1     1     1    -1    -1  y
                    b1g      1    -1    -1     1     1    -1    -1     1  xy, Rz
                    b1u      1     1     1     1    -1    -1    -1    -1  z
                    b2g      1    -1     1    -1    -1     1    -1     1  xz, Ry
                    b3g      1     1    -1    -1    -1    -1     1     1  yz, Rx
                    au       1    -1    -1     1    -1     1     1    -1  I
--


++    Basis set information:
      ----------------------


      Basis set label: N.AUG-CC-PVTZ.........

      Electronic valence basis set:
      ------------------
      Associated Effective Charge   7.000000 au
      Associated Actual Charge      7.000000 au
      Nuclear Model: Point charge

      Shell  nPrim  nBasis  Cartesian Spherical Contaminant
         s      11       5        X                  
         p       6       4        X                  
         d       3       3                 X         
         f       2       2                 X         


      Basis set label: X...............................................................................

      Electronic valence basis set:
      ------------------
      Associated Effective Charge   0.000000 au
      Associated Actual Charge      0.000000 au
      Nuclear Model: Point charge

      Shell  nPrim  nBasis  Cartesian Spherical Contaminant
         s       3       3        X                  
         p       3       3        X                  
         d       3       3                 X         
--


++    Molecular structure info:
      -------------------------

                    ************************************************ 
                    **** Cartesian Coordinates / Bohr, Angstrom **** 
                    ************************************************ 

     Center  Label                x              y              z                     x              y              z
        1      N1               0.000000       0.000000       1.039000              0.000000       0.000000       0.549815
        2      N1               0.000000       0.000000      -1.039000              0.000000       0.000000      -0.549815
        3      X1               0.000000       0.000000       0.000000              0.000000       0.000000       0.000000

                    *************************************** 
                    *    InterNuclear Distances / Bohr    * 
                    *************************************** 

               1 N1            2 N1            3 X1    
    1 N1       0.000000
    2 N1       2.078000        0.000000
    3 X1       1.039000        1.039000        0.000000

                    ******************************************* 
                    *    InterNuclear Distances / Angstrom    * 
                    ******************************************* 

               1 N1            2 N1            3 X1    
    1 N1       0.000000
    2 N1       1.099630        0.000000
    3 X1       0.549815        0.549815        0.000000

                    ************************************** 
                    *    Valence Bond Angles / Degree    * 
                    ************************************** 
                          Atom centers                 Phi
                      2 N1       1 N1       3 X1         0.00
                      1 N1       2 N1       3 X1         0.00
                      1 N1       3 X1       2 N1       180.00
--


            Nuclear Potential Energy             23.58036574 au

--- Stop Module: gateway at Thu May 13 19:25:11 2021 /rc=_RC_ALL_IS_WELL_ ---
*** files: xmldump
    saved to directory /home/gayverjr/final_opencap_examples/openmolcas/symm

--- Start Module: seward at Thu May 13 19:25:11 2021 ---

()()()()()()()()()()()()()()()()()()()()()()()()()()()()()()()()()()()()()()()()()()()()()()()()()()

                                              &SEWARD

                                   only a single process is used
                       available to each process: 20 GB of memory, 16 threads
                                             pid: 20246
()()()()()()()()()()()()()()()()()()()()()()()()()()()()()()()()()()()()()()()()()()()()()()()()()()

               SEWARD will generate:
                  Multipole Moment integrals up to order  2
                  Kinetic Energy integrals
                  Nuclear Attraction integrals (point charge)
                  One-Electron Hamiltonian integrals
                  Velocity integrals
                  Orbital angular momentum around ( 0.0000  0.0000  0.0000 )
                  Velocity quadrupole around ( 0.0000  0.0000  0.0000 )
                  Two-Electron Repulsion integrals

                   Integrals are discarded if absolute value <: 0.10E-13
                   Integral cutoff threshold is set to       <: 0.10E-15

                    Unitary symmetry adaptation


            Nuclear Potential Energy             23.58036574 au


      Basis set specifications :
      Symmetry species         ag   b3u  b2u  b1g  b1u  b2g  b3g  au 
      Basis functions           28   14   14    8   22   14   14    5


  Input file to MOLDEN was generated!

--- Stop Module: seward at Thu May 13 19:25:14 2021 /rc=_RC_ALL_IS_WELL_ ---
*** files: xms.GssOrb xms.guessorb.h5 xms.guessorb.molden xmldump
    saved to directory /home/gayverjr/final_opencap_examples/openmolcas/symm
--- Module seward spent 2 seconds ---

*** symbolic link created: INPORB -> xms.GssOrb
--- Start Module: scf at Thu May 13 19:25:14 2021 ---

()()()()()()()()()()()()()()()()()()()()()()()()()()()()()()()()()()()()()()()()()()()()()()()()()()

                                                &SCF

                                   only a single process is used
                       available to each process: 20 GB of memory, 16 threads
                                             pid: 20278
()()()()()()()()()()()()()()()()()()()()()()()()()()()()()()()()()()()()()()()()()()()()()()()()()()

++    Input section:
      --------------

      Header of the integral files:
      
       Integrals generated by Gateway/Seward, Thu May 13 19:25:12 2021


      Cartesian coordinates in Angstrom:
      -----------------------------------------------------
      No.  Label        X            Y            Z        
      -----------------------------------------------------
       1   N1         0.00000000   0.00000000   0.54981512
       2   X1         0.00000000   0.00000000   0.00000000
       3   N1         0.00000000   0.00000000  -0.54981512
      -----------------------------------------------------
      Nuclear repulsion energy =   23.58036574
--

++    Orbital specifications:
      -----------------------

      Symmetry species               1   2   3   4   5   6   7   8
                                    ag b3u b2u b1g b1u b2g b3g  au
      Frozen orbitals                0   0   0   0   0   0   0   0
      Occupied orbitals              3   1   1   0   2   0   0   0
      Secondary orbitals            25  13  13   8  20  14  14   5
      Deleted orbitals               0   0   0   0   0   0   0   0
      Total number of orbitals      28  14  14   8  22  14  14   5
      Number of basis functions     28  14  14   8  22  14  14   5
--

      Molecular charge                           0.000

++    Optimization specifications:
      ----------------------------

      SCF Algorithm: Conventional
      Minimized density differences are used
      Number of density matrices in core                5
      Maximum number of NDDO SCF iterations           400
      Maximum number of HF SCF iterations             400
      Threshold for SCF energy change            0.10E-08
      Threshold for density matrix               0.10E-03
      Threshold for Fock matrix                  0.15E-03
      Threshold for linear dependence            0.10E-08
      Threshold at which DIIS is turned on       0.15E+00
      Threshold at which QNR/C2DIIS is turned on 0.75E-01
      Threshold for Norm(delta) (QNR/C2DIIS)     0.20E-04
      DIIS extrapolation of the SCF procedure
      All orbitals punched on: SCFORB
--

      Input vectors read from INPORB
      Orbital file label: *Guess orbitals


++ Convergence information
                                   SCF        iterations: Energy and convergence statistics

Iter     Tot. SCF        One-elec.       Two-elec.     Energy      Max Dij or  Max Fij      DNorm      TNorm      AccCon     Time
         Energy          Energy          Energy        Change      Delta Norm                                                in Sec.
   1  -108.707230664  -191.849085778    59.561489378   0.00E+00    0.16E+00*   0.18E+00*    0.50E+01   0.89E+02   None         0.
   2  -108.969308746  -194.970433876    62.420759393  -0.26E+00*   0.51E-01*   0.48E-01*    0.30E+01   0.91E+02   EDIIS        0.
   3  -108.983355927  -193.973137613    61.409415949  -0.14E-01*   0.12E-01*   0.12E-01*    0.77E+00   0.90E+02   EDIIS        0.
   4  -108.984356063  -194.229605454    61.664883654  -0.10E-02*   0.48E-02*   0.26E-02*    0.11E+00   0.90E+02   c2DIIS       0.
   5  -108.984436342  -194.167424278    61.602622200  -0.80E-04*   0.14E-02*   0.73E-03*    0.13E-01   0.90E+02   QNRc2DIIS    0.
   6  -108.984442248  -194.168569513    61.603761529  -0.59E-05*   0.67E-03*   0.24E-03*    0.18E-02   0.90E+02   QNRc2DIIS    0.
   7  -108.984442932  -194.166897385    61.602088717  -0.68E-06*   0.31E-04*   0.23E-04     0.18E-03   0.90E+02   QNRc2DIIS    0.
   8  -108.984442936  -194.167348259    61.602539587  -0.36E-08*   0.58E-05    0.33E-05     0.19E-04   0.90E+02   QNRc2DIIS    0.
   9  -108.984442936  -194.167342857    61.602534185  -0.87E-10    0.34E-06    0.12E-06     0.20E-03   0.90E+02   QNRc2DIIS    0.

       Convergence after  9 Macro Iterations
--

 *****************************************************************************************************************************
 *                                                                                                                           *
 *                                             SCF/KS-DFT Program, Final results                                             *
 *                                                                                                                           *
 *                                                                                                                           *
 *                                                                                                                           *
 *                                                       Final Results                                                       *
 *                                                                                                                           *
 *****************************************************************************************************************************

::    Total SCF energy                               -108.9844429358
      One-electron energy                            -194.1673428571
      Two-electron energy                              61.6025341850
      Nuclear repulsion energy                         23.5803657363
      Kinetic energy (interpolated)                   108.7233114575
      Virial theorem                                    1.0024017984
      Total spin, S(S+1)                                0.0000000000
      Total spin, S                                     0.0000000000
      Max non-diagonal density matrix element           0.0000002180
      Max non-diagonal Fock matrix element              0.0000000431


      All orbitals with orbital energies smaller than  E(LUMO)+0.5 are printed

++    Molecular orbitals:
      -------------------

      Title: SCF orbitals

      Molecular orbitals for symmetry species 1: ag 

          Orbital            1         2         3         4         5         6         7         8         9        10    
          Energy          -15.6860   -1.4709   -0.6343    0.0090    0.0416    0.0508    0.0538    0.1184    0.1403    0.1566
          Occ. No.          2.0000    2.0000    2.0000    0.0000    0.0000    0.0000    0.0000    0.0000    0.0000    0.0000

        1 N1     1s         0.9998    0.0238    0.0064   -0.0009    0.0003   -0.0100   -0.0000   -0.0048   -0.0181   -0.0000
        2 N1     1s         0.0019   -0.8986    0.3408   -0.0325    0.0721   -0.0462   -0.0000   -0.1537   -0.0223   -0.0000
        3 N1     1s         0.0013    0.0049   -0.0012    0.0002    0.0019   -0.0052    0.0000    0.0006   -0.0115   -0.0000
        4 N1     1s         0.0018    0.1788    0.2255    0.0008    0.0639   -0.4622    0.0000    0.0007   -1.0580   -0.0000
        5 N1     1s         0.0027   -0.0171    0.1412   -1.4250   -4.1398   -5.4267    0.0000  -10.7982  -12.7877   -0.0000
        6 N1     2pz       -0.0071    0.4837    0.9864   -0.0323    0.0716    0.0028    0.0000   -0.1253   -0.0377   -0.0000
        7 N1     2pz        0.0036   -0.0531   -0.0664    0.0028    0.0028    0.0258   -0.0000    0.0156    0.0649    0.0000
        8 N1     2pz        0.0049   -0.1837   -0.1249   -0.0099   -0.0364   -0.2464    0.0000   -0.0948   -0.5454   -0.0000
        9 N1     2pz        0.0102   -0.0935    0.1771   -1.4462   -4.4579   -8.1354    0.0000  -10.9529  -19.4385   -0.0000
       10 N1     3d0        0.0008   -0.0286   -0.0258   -0.0001   -0.0015   -0.0019   -0.0000   -0.0024    0.0014    0.0000
       11 N1     3d0       -0.0013   -0.0218   -0.0212    0.0012    0.0088    0.0101    0.0000    0.0086    0.0424    0.0000
       12 N1     3d0       -0.0004    0.0362    0.0103   -0.0319   -0.0656    0.1726   -0.0000   -0.2121    0.3778    0.0000
       13 N1     3d2+       0.0000   -0.0000   -0.0000   -0.0000   -0.0000   -0.0000   -0.0017   -0.0000   -0.0000    0.0078
       14 N1     3d2+      -0.0000    0.0000    0.0000    0.0000    0.0000    0.0000    0.0168    0.0000    0.0000   -0.0239
       15 N1     3d2+       0.0000    0.0000   -0.0000   -0.0000   -0.0000   -0.0000   -0.0965   -0.0000   -0.0000    0.2567
       16 N1     4f0        0.0002    0.0107    0.0082   -0.0007   -0.0016    0.0005   -0.0000   -0.0039   -0.0006   -0.0000
       17 N1     4f0        0.0006   -0.0071   -0.0037    0.0026    0.0035   -0.0188    0.0000    0.0154   -0.0436   -0.0000
       18 N1     4f2+      -0.0000    0.0000    0.0000    0.0000    0.0000    0.0000    0.0002    0.0000    0.0000   -0.0008
       19 N1     4f2+      -0.0000   -0.0000    0.0000   -0.0000    0.0000   -0.0000    0.0004    0.0000    0.0000   -0.0026
       20 X1     1s        -0.0036    0.0270   -0.1254    2.7075    8.3494    6.8654   -0.0000   19.1264   15.0072    0.0000
       21 X1     1s        -0.0002    0.0030    0.0272   -2.9981   -7.9052   -1.6571    0.0000  -10.3229   -2.9825   -0.0000
       22 X1     1s         0.0002   -0.0015   -0.0054    2.6093    3.4875    0.2152   -0.0000    2.9811    0.4192    0.0000
       23 X1     3d0       -0.0023   -0.0038   -0.0516    0.2027    0.6019    0.6023   -0.0000    1.4913    1.5362    0.0000
       24 X1     3d0       -0.0025    0.0325   -0.0346    0.4974    1.6271    3.6644   -0.0000    3.7184    8.4911    0.0000
       25 X1     3d0        0.0003   -0.0051    0.0013   -0.1152   -0.3896   -1.9900    0.0000   -0.4784   -2.0242   -0.0000
       26 X1     3d2+      -0.0000   -0.0000    0.0000    0.0000    0.0000    0.0000    0.4296    0.0000    0.0000   -1.0853
       27 X1     3d2+       0.0000   -0.0000   -0.0000   -0.0000   -0.0000   -0.0000   -0.9757   -0.0000   -0.0000    2.6604
       28 X1     3d2+      -0.0000   -0.0000   -0.0000    0.0000    0.0000    0.0000    1.5672    0.0000    0.0000   -1.4089

          Orbital           11        12        13    
          Energy            0.2787    0.3046    0.3536
          Occ. No.          0.0000    0.0000    0.0000

        1 N1     1s        -0.0136    0.0332   -0.0000
        2 N1     1s         0.0703    0.3558   -0.0000
        3 N1     1s        -0.0160    0.0290   -0.0000
        4 N1     1s        -1.3205    2.3100    0.0000
        5 N1     1s       -28.8212   -0.2881    0.0000
        6 N1     2pz        0.1835    0.0427   -0.0000
        7 N1     2pz        0.0999   -0.0671    0.0000
        8 N1     2pz       -0.9358    0.8030   -0.0000
        9 N1     2pz      -40.7704    8.6957    0.0000
       10 N1     3d0       -0.0157    0.0105    0.0000
       11 N1     3d0        0.0725    0.0185    0.0000
       12 N1     3d0        0.0671   -1.0223   -0.0000
       13 N1     3d2+      -0.0000    0.0000   -0.0004
       14 N1     3d2+       0.0000   -0.0000    0.1186
       15 N1     3d2+      -0.0000    0.0000   -0.5299
       16 N1     4f0       -0.0050   -0.0112   -0.0000
       17 N1     4f0       -0.0389    0.0852   -0.0000
       18 N1     4f2+       0.0000    0.0000   -0.0001
       19 N1     4f2+      -0.0000    0.0000   -0.0035
       20 X1     1s        35.2232    2.8673   -0.0000
       21 X1     1s        -9.1631   -3.8226    0.0000
       22 X1     1s         1.8866    1.1480   -0.0000
       23 X1     3d0        5.0615    0.8178   -0.0000
       24 X1     3d0       12.5025   -4.0914   -0.0000
       25 X1     3d0       -1.4604    0.8862    0.0000
       26 X1     3d2+       0.0000   -0.0000    2.9659
       27 X1     3d2+      -0.0000    0.0000   -2.7370
       28 X1     3d2+       0.0000   -0.0000    0.9872

      Molecular orbitals for symmetry species 2: b3u

          Orbital            1         2         3         4         5    
          Energy           -0.6136    0.0118    0.0411    0.1058    0.2624
          Occ. No.          2.0000    0.0000    0.0000    0.0000    0.0000

        1 N1     2px        0.8873   -0.0128   -0.0535   -0.1050    0.2965
        2 N1     2px       -0.0104   -0.0048    0.0127   -0.0276   -0.0879
        3 N1     2px       -0.0520    0.0181   -0.0506    0.1023    0.4253
        4 N1     2px       -0.0034   -0.1410    0.3374   -1.0230   -2.8898
        5 N1     3d1+      -0.0283    0.0006    0.0019    0.0044   -0.0114
        6 N1     3d1+      -0.0518    0.0011    0.0046    0.0093   -0.0227
        7 N1     3d1+      -0.0103    0.0029   -0.0060    0.0172    0.0150
        8 N1     4f1+       0.0114    0.0000   -0.0013   -0.0004    0.0080
        9 N1     4f1+       0.0014   -0.0007    0.0016   -0.0042   -0.0056
       10 N1     4f3+      -0.0000   -0.0000    0.0000   -0.0000   -0.0000
       11 N1     4f3+       0.0000    0.0000   -0.0000    0.0000    0.0000
       12 X1     2px        0.0237    0.6302   -1.7015    4.6378    5.2565
       13 X1     2px       -0.0161   -1.3467    3.6354   -4.2885   -3.2095
       14 X1     2px        0.0053    1.7966   -1.9507    1.5053    0.9611

      Molecular orbitals for symmetry species 3: b2u

          Orbital            1         2         3         4         5    
          Energy           -0.6136    0.0118    0.0411    0.1058    0.2624
          Occ. No.          2.0000    0.0000    0.0000    0.0000    0.0000

        1 N1     2py        0.8873   -0.0128   -0.0535   -0.1050    0.2965
        2 N1     2py       -0.0104   -0.0048    0.0127   -0.0276   -0.0879
        3 N1     2py       -0.0520    0.0181   -0.0506    0.1023    0.4253
        4 N1     2py       -0.0034   -0.1410    0.3374   -1.0230   -2.8898
        5 N1     3d1-      -0.0283    0.0006    0.0019    0.0044   -0.0114
        6 N1     3d1-      -0.0518    0.0011    0.0046    0.0093   -0.0227
        7 N1     3d1-      -0.0103    0.0029   -0.0060    0.0172    0.0150
        8 N1     4f3-       0.0000   -0.0000   -0.0000    0.0000    0.0000
        9 N1     4f3-      -0.0000   -0.0000    0.0000   -0.0000   -0.0000
       10 N1     4f1-       0.0114    0.0000   -0.0013   -0.0004    0.0080
       11 N1     4f1-       0.0014   -0.0007    0.0016   -0.0042   -0.0056
       12 X1     2py        0.0237    0.6302   -1.7015    4.6378    5.2565
       13 X1     2py       -0.0161   -1.3467    3.6354   -4.2885   -3.2095
       14 X1     2py        0.0053    1.7966   -1.9507    1.5053    0.9611

      Molecular orbitals for symmetry species 4: b1g

          Orbital            1         2         3    
          Energy            0.0538    0.1566    0.3536
          Occ. No.          0.0000    0.0000    0.0000

        1 N1     3d2-      -0.0017    0.0078   -0.0004
        2 N1     3d2-       0.0168   -0.0239    0.1186
        3 N1     3d2-      -0.0965    0.2567   -0.5299
        4 N1     4f2-       0.0002   -0.0008   -0.0001
        5 N1     4f2-       0.0004   -0.0026   -0.0035
        6 X1     3d2-       0.4296   -1.0853    2.9659
        7 X1     3d2-      -0.9757    2.6604   -2.7370
        8 X1     3d2-       1.5672   -1.4089    0.9872

      Molecular orbitals for symmetry species 5: b1u

          Orbital            1         2         3         4         5         6         7    
          Energy          -15.6825   -0.7802    0.0119    0.0415    0.1045    0.2026    0.3303
          Occ. No.          2.0000    2.0000    0.0000    0.0000    0.0000    0.0000    0.0000

        1 N1     1s         0.9994    0.0062   -0.0008   -0.0004   -0.0046    0.0061    0.0094
        2 N1     1s        -0.0016    0.9305   -0.0163    0.0450   -0.1173    0.1588   -0.2172
        3 N1     1s         0.0008    0.0003    0.0002    0.0017   -0.0013   -0.0153   -0.0462
        4 N1     1s         0.0305    0.3136    0.1166    0.2908    1.4232    9.9795   15.1108
        5 N1     1s         0.0110    0.0757    1.5303    3.7624   13.1323   57.6154   59.7370
        6 N1     2pz       -0.0044    0.4548   -0.0049    0.0198   -0.0341    0.0758   -0.0554
        7 N1     2pz        0.0009   -0.0316   -0.0032   -0.0066   -0.0466   -0.3343   -0.5289
        8 N1     2pz       -0.0121   -0.1637   -0.0623   -0.1298   -0.8126   -5.7044   -9.3169
        9 N1     2pz       -0.0025   -0.0101   -0.6884   -1.6800   -5.6336  -19.5425  -14.9423
       10 N1     3d0        0.0010   -0.0044    0.0003   -0.0004    0.0023   -0.0008    0.0046
       11 N1     3d0        0.0013   -0.0016    0.0009   -0.0033    0.0283    0.2299    0.4541
       12 N1     3d0        0.0022    0.0198    0.0280    0.0640    0.2581    1.3064    1.7510
       13 N1     3d2+       0.0000   -0.0000    0.0000   -0.0000   -0.0000   -0.0000   -0.0000
       14 N1     3d2+      -0.0000    0.0000    0.0000    0.0000    0.0000    0.0000    0.0000
       15 N1     3d2+       0.0000    0.0000   -0.0000   -0.0000    0.0000    0.0000    0.0000
       16 N1     4f0       -0.0007   -0.0015    0.0003    0.0009   -0.0000   -0.0133   -0.0325
       17 N1     4f0       -0.0000    0.0003   -0.0030   -0.0065   -0.0217   -0.0658   -0.0578
       18 N1     4f2+       0.0000    0.0000   -0.0000    0.0000    0.0000    0.0000    0.0000
       19 N1     4f2+      -0.0000   -0.0000    0.0000   -0.0000   -0.0000   -0.0000   -0.0000
       20 X1     2pz        0.0005    0.0064    0.9744    2.5888    7.0769    9.9215    2.1277
       21 X1     2pz       -0.0001   -0.0041   -1.5662   -4.0929   -5.1369   -3.8915    0.3416
       22 X1     2pz        0.0000    0.0013    1.8780    2.0543    1.6612    0.9353   -0.2457

      Molecular orbitals for symmetry species 6: b2g

          Orbital            1         2         3         4    
          Energy            0.0493    0.1186    0.1724    0.3153
          Occ. No.          0.0000    0.0000    0.0000    0.0000

        1 N1     2px        0.0556    0.4794   -0.6550   -0.4613
        2 N1     2px        0.0122   -0.0161   -0.0231    0.0174
        3 N1     2px        0.5221   -0.5485   -1.2983    1.7391
        4 N1     2px       12.1540  -18.4337  -30.0590   58.1546
        5 N1     3d1+       0.0033    0.0056   -0.0158    0.0041
        6 N1     3d1+      -0.0419    0.0962    0.0624   -0.2180
        7 N1     3d1+      -0.1930    0.2660    0.3308   -0.3798
        8 N1     4f1+       0.0006   -0.0051    0.0015    0.0132
        9 N1     4f1+       0.0289   -0.0464   -0.0508    0.1024
       10 N1     4f3+      -0.0000    0.0000    0.0000   -0.0000
       11 N1     4f3+       0.0000   -0.0000   -0.0000    0.0000
       12 X1     3d1+      -0.8162    1.3534    2.0533   -5.5849
       13 X1     3d1+      -4.2510    6.5655    9.4980  -14.6477
       14 X1     3d1+       2.0902   -1.6655   -1.7836    1.8052

      Molecular orbitals for symmetry species 7: b3g

          Orbital            1         2         3         4    
          Energy            0.0493    0.1186    0.1724    0.3153
          Occ. No.          0.0000    0.0000    0.0000    0.0000

        1 N1     2py        0.0556    0.4794   -0.6550   -0.4613
        2 N1     2py        0.0122   -0.0161   -0.0231    0.0174
        3 N1     2py        0.5221   -0.5485   -1.2983    1.7391
        4 N1     2py       12.1540  -18.4337  -30.0590   58.1546
        5 N1     3d1-       0.0033    0.0056   -0.0158    0.0041
        6 N1     3d1-      -0.0419    0.0962    0.0624   -0.2180
        7 N1     3d1-      -0.1930    0.2660    0.3308   -0.3798
        8 N1     4f3-       0.0000   -0.0000   -0.0000    0.0000
        9 N1     4f3-      -0.0000    0.0000    0.0000   -0.0000
       10 N1     4f1-       0.0006   -0.0051    0.0015    0.0132
       11 N1     4f1-       0.0289   -0.0464   -0.0508    0.1024
       12 X1     3d1-      -0.8162    1.3534    2.0533   -5.5849
       13 X1     3d1-      -4.2510    6.5655    9.4980  -14.6477
       14 X1     3d1-       2.0902   -1.6655   -1.7836    1.8052
--


++    Molecular charges:
      ------------------

      Mulliken charges per centre and basis function type
      ---------------------------------------------------

                N1      X1    
      1s       4.0414 -0.1004
      2px      0.9590  0.0069
      2pz      1.0234  0.0023
      2py      0.9590  0.0069
      3d2+     0.0000 -0.0000
      3d1+     0.0345  0.0000
      3d0      0.0010 -0.0372
      3d1-     0.0345  0.0000
      3d2-     0.0000  0.0000
      4f3+     0.0000  0.0000
      4f2+    -0.0000  0.0000
      4f1+     0.0030  0.0000
      4f0      0.0018  0.0000
      4f1-     0.0030  0.0000
      4f2-     0.0000  0.0000
      4f3-     0.0000  0.0000
      Total    7.0607 -0.1215

      N-E     -0.0607  0.1215

      Total electronic charge=   14.000000

      Total            charge=   -0.000000
--


++    Molecular properties:
      ---------------------

      Charge (e):
                      =   -0.0000
      Dipole Moment (Debye):
      Origin of the operator (Ang)=    0.0000    0.0000    0.0000
                   X=  0.0000E+00               Y=  0.0000E+00               Z=  0.0000E+00           Total=  0.0000E+00
      Quadrupole Moment (Debye*Ang):
      Origin of the operator (Ang)=    0.0000    0.0000    0.0000
                  XX= -1.0404E+01              XY=  0.0000E+00              XZ=  0.0000E+00              YY= -1.0404E+01
                  YZ=  0.0000E+00              ZZ= -1.1647E+01
      In traceless form (Debye*Ang)
                  XX=  6.2134E-01              XY=  0.0000E+00              XZ=  0.0000E+00              YY=  6.2134E-01
                  YZ=  0.0000E+00              ZZ= -1.2427E+00
--


  Input file to MOLDEN was generated!

 ###############################################################################
 ###############################################################################
 ###                                                                         ###
 ###                                                                         ###
 ###    WARNING: RunFile label nBas                                          ###
 ###    was used       71 times                                              ###
 ###                                                                         ###
 ###                                                                         ###
 ###############################################################################
 ###############################################################################
--- Stop Module: scf at Thu May 13 19:25:15 2021 /rc=_RC_ALL_IS_WELL_ ---
*** files: xms.scf.molden xms.ScfOrb xms.scf.h5 xmldump
    saved to directory /home/gayverjr/final_opencap_examples/openmolcas/symm

*** symbolic link created: INPORB -> xms.ScfOrb
--- Start Module: mbpt2 at Thu May 13 19:25:15 2021 ---

()()()()()()()()()()()()()()()()()()()()()()()()()()()()()()()()()()()()()()()()()()()()()()()()()()

                                               &MBPT2

                                   only a single process is used
                       available to each process: 20 GB of memory, 16 threads
                                             pid: 20318
()()()()()()()()()()()()()()()()()()()()()()()()()()()()()()()()()()()()()()()()()()()()()()()()()()


      Cartesian coordinates in Angstrom:
      -----------------------------------------------------
      No.  Label        X            Y            Z        
      -----------------------------------------------------
       1   N1         0.00000000   0.00000000   0.54981512
       2   X1         0.00000000   0.00000000   0.00000000
       3   N1         0.00000000   0.00000000  -0.54981512
      -----------------------------------------------------
      Nuclear repulsion energy =   23.58036574

      Contents of RUNFILE file:
      -------------------------

      Symmetry species                           1   2   3   4   5   6   7   8
                                                ag b3u b2u b1g b1u b2g b3g  au
      Number of basis functions                 28  14  14   8  22  14  14   5
      Frozen occupied orbitals                   1   0   0   0   1   0   0   0
      Active occupied orbitals                   2   1   1   0   1   0   0   0
      Active external orbitals                  25  13  13   8  20  14  14   5
      Deleted external orbitals                  0   0   0   0   0   0   0   0


      Reference numbers of frozen occupied orbitals according to the original input sequence
      symmetry species 1                        1
      symmetry species 5                        1


      Energies of the active occupied orbitals

      symmetry species 1                    -1.470923     -0.634339

      symmetry species 2                    -0.613554

      symmetry species 3                    -0.613554

      symmetry species 5                    -0.780241


      Energies of the active external orbitals

      symmetry species 1                     0.009036      0.041601      0.050795      0.053782      0.118385
                                             0.140261      0.156590      0.278687      0.304552      0.353610
                                             0.530963      0.650208      0.715001      1.157019      1.306658
                                             1.547486      1.777186      1.825594      3.107620      4.044689
                                             4.447537      4.734835      5.225161      6.796787     11.477633

      symmetry species 2                     0.011837      0.041100      0.105813      0.262407      0.583292
                                             0.847436      1.371877      1.476541      2.159284      3.389187
                                             4.527061      4.661821      5.592245

      symmetry species 3                     0.011837      0.041100      0.105813      0.262407      0.583292
                                             0.847436      1.371877      1.476541      2.159284      3.389187
                                             4.527061      4.661821      5.592245

      symmetry species 4                     0.053782      0.156590      0.353610      0.715001      1.547486
                                             1.777186      4.447537      5.225161

      symmetry species 5                     0.011943      0.041473      0.104471      0.202642      0.330288
                                             0.580056      0.582153      0.788314      1.091368      1.571138
                                             1.666315      2.002470      2.315253      2.765465      4.565115
                                             5.156378      5.196967      5.742192      6.766708     19.220100

      symmetry species 6                     0.049256      0.118611      0.172424      0.315329      0.542185
                                             0.719324      1.226475      1.719811      1.819751      2.600834
                                             4.360116      5.041766      5.533564      6.889704

      symmetry species 7                     0.049256      0.118611      0.172424      0.315329      0.542185
                                             0.719324      1.226475      1.719811      1.819751      2.600834
                                             4.360116      5.041766      5.533564      6.889704

      symmetry species 8                     0.582153      1.571138      2.315253      5.156378      5.742192


      ********************************************************************************************************
      *                                               Results                                                *
      ********************************************************************************************************

 Conventional algorithm used...

  Input file to MOLDEN was generated!


       SCF energy                           =     -108.9844429358 a.u.
       Second-order correlation energy      =       -0.3802693106 a.u.

       Total energy                         =     -109.3647122464 a.u.
       Reference weight ( Cref**2 )         =        0.89220

::    Total MBPT2 energy                             -109.3647122464


++    Molecular properties:
      ---------------------

      Charge (e):
                      =   -0.0000
      Dipole Moment (Debye):
      Origin of the operator (Ang)=    0.0000    0.0000    0.0000
                   X=  0.0000E+00               Y=  0.0000E+00               Z=  0.0000E+00           Total=  0.0000E+00
      Quadrupole Moment (Debye*Ang):
      Origin of the operator (Ang)=    0.0000    0.0000    0.0000
                  XX= -1.0297E+01              XY=  0.0000E+00              XZ=  0.0000E+00              YY= -1.0297E+01
                  YZ=  0.0000E+00              ZZ= -1.1897E+01
      In traceless form (Debye*Ang)
                  XX=  7.9980E-01              XY=  0.0000E+00              XZ=  0.0000E+00              YY=  7.9980E-01
                  YZ=  0.0000E+00              ZZ= -1.5996E+00
--


       Zeroth-order energy (E0)             =      -47.3819087509 a.u.

       Shanks-type energy S1(E)             =     -109.3670742098 a.u.




       Data processing and timing information:

       Section                                              time(sec)
                                                          CPU  Elapsed

      Input data processing                              0.06      0.07
      Transformation of integrals                        0.55      0.95
      MBPT2 calculations (BJAI)                          1.15      1.60
      Total MBPT2 calculations                           1.76      2.62


 ###############################################################################
 ###############################################################################
 ###                                                                         ###
 ###                                                                         ###
 ###    WARNING: RunFile label nBas                                          ###
 ###    was used       53 times                                              ###
 ###                                                                         ###
 ###                                                                         ###
 ###############################################################################
 ###############################################################################
--- Stop Module: mbpt2 at Thu May 13 19:25:18 2021 /rc=_RC_ALL_IS_WELL_ ---
*** files: xms.mp2.molden xms.MP2Orb xmldump
    saved to directory /home/gayverjr/final_opencap_examples/openmolcas/symm
--- Module mbpt2 spent 2 seconds ---

>>> COPY /home/gayverjr/final_opencap_examples/openmolcas/symm/xms.MP2Orb INPORB

--- Start Module: rasscf at Thu May 13 19:25:18 2021 ---

()()()()()()()()()()()()()()()()()()()()()()()()()()()()()()()()()()()()()()()()()()()()()()()()()()

                                              &RASSCF

                                   only a single process is used
                       available to each process: 20 GB of memory, 16 threads
                                             pid: 20342
()()()()()()()()()()()()()()()()()()()()()()()()()()()()()()()()()()()()()()()()()()()()()()()()()()


      Header of the ONEINT file:
      --------------------------
      
      Integrals generated by Gateway/Seward, Thu May 13 19:25:12 2021


      OrdInt status: non-squared


      Cartesian coordinates in Angstrom:
      -----------------------------------------------------
      No.  Label        X            Y            Z        
      -----------------------------------------------------
       1   N1         0.00000000   0.00000000   0.54981512
       2   X1         0.00000000   0.00000000   0.00000000
       3   N1         0.00000000   0.00000000  -0.54981512
      -----------------------------------------------------
      Nuclear repulsion energy =   23.58036574

++    Wave function specifications:
      -----------------------------

      Number of closed shell electrons          10
      Number of electrons in active shells       4
      Max number of holes in RAS1 space          0
      Max nr of electrons in RAS3 space          0
      Number of inactive orbitals                5
      Number of active orbitals                  4
      Number of secondary orbitals             110
      Spin quantum number                      0.0
      State symmetry                             1
--

++    Orbital specifications:
      -----------------------

      Symmetry species                           1   2   3   4   5   6   7   8
                                                ag b3u b2u b1g b1u b2g b3g  au
      Frozen orbitals                            0   0   0   0   0   0   0   0
      Inactive orbitals                          3   0   0   0   2   0   0   0
      Active orbitals                            0   1   1   0   0   1   1   0
      RAS1 orbitals                              0   0   0   0   0   0   0   0
      RAS2 orbitals                              0   1   1   0   0   1   1   0
      RAS3 orbitals                              0   0   0   0   0   0   0   0
      Secondary orbitals                        25  13  13   8  20  13  13   5
      Deleted orbitals                           0   0   0   0   0   0   0   0
      Number of basis functions                 28  14  14   8  22  14  14   5
--

++    CI expansion specifications:
      ----------------------------

      Number of CSFs                             8
      Number of determinants                     9
      Number of root(s) required                 1
      Root chosen for geometry opt.              1
      CI root used                               1
         
      highest root included in the CI            1
      max. size of the explicit Hamiltonian      8
--

++    Optimization specifications:
      ----------------------------

      RASSCF algorithm: Conventional
      Maximum number of macro iterations       200
      Maximum number of SX iterations          100
      Threshold for RASSCF energy            0.100E-07
      Threshold for max MO rotation          0.100E+00
      Threshold for max BLB element          0.100E-03
      Level shift parameter                  0.500E+00
      Make Quasi-Newton update
--

      The MO-coefficients are taken from the file:
      INPORB                                                                                                                          
      Title:  Natural MP2 orbitals                                                         

      Total molecular charge    0.00

      ************************************************************************************************************************
      *                                                                                                                      *
      *                                            Wave function control section                                             *
      *                                                                                                                      *
      ************************************************************************************************************************


                                         RASSCF iterations: Energy and convergence statistics
                                         ----------------------------------------------------

      Iter CI   SX   CI       RASSCF       Energy    max ROT     max BLB   max BLB  Level Ln srch  Step   QN   Walltime
          iter iter root      energy       change     param      element    value   shift minimum  type update hh:mm:ss
 Nr of preliminary CI iterations:   1
        1   1   19    1  -109.07333915    0.00E+00   0.31E-01    3   7 1  0.46E-01*  0.00   0.00    SX    NO    0:00:00
        2   1   18    1  -109.07627933   -0.29E-02* -0.73E-02    2   3 5  0.12E-01*  0.00   0.00    SX    NO    0:00:00
        3   1   17    1  -109.07645334   -0.17E-03* -0.17E-02    2   3 5  0.35E-02*  0.00   0.00    SX    NO    0:00:00
        4   1   15    1  -109.07646970   -0.16E-04*  0.53E-03    3   4 1 -0.10E-02*  0.00   0.00    SX    NO    0:00:00
        5   1   13    1  -109.07647141   -0.17E-05* -0.25E-03    2   3 5  0.33E-03*  0.00   1.35    QN   YES    0:00:00
        6   1    9    1  -109.07647163   -0.22E-06* -0.16E-04    3   5 1  0.56E-04   0.00   0.93    QN   YES    0:00:00
        7   1    5    1  -109.07647163   -0.30E-08   0.31E-05    1   2 3 -0.64E-05   0.00   0.99    QN   YES    0:00:00
      Convergence after  7 iterations
        8   1    5    1  -109.07647163   -0.50E-10   0.31E-05    1   2 2 -0.13E-05   0.00   0.99    QN   YES    0:00:00

      ************************************************************************************************************************
                                                      Wave function printout:
                       occupation of active orbitals, and spin coupling of open shells (u,d: Spin up or down)
      ************************************************************************************************************************

      Note: transformation to natural orbitals
      has been made, which may change the order of the CSFs.

      printout of CI-coefficients larger than  0.05 for root  1
      energy=    -109.076472
      conf/sym  2 3 6 7     Coeff  Weight
             1  2 2 0 0   0.96812 0.93726
             3  2 0 0 2  -0.13527 0.01830
             4  0 2 2 0  -0.13527 0.01830
             6  u d u d   0.11656 0.01359
             7  u u d d  -0.10002 0.01000

      Natural orbitals and occupation numbers for root  1
      sym 2:   1.935407
      sym 3:   1.935407
      sym 6:   0.064593
      sym 7:   0.064593

      ************************************************************************************************************************
      *                                                                                                                      *
      *                                                    Final results                                                     *
      *                                                                                                                      *
      ************************************************************************************************************************


++    Wave function specifications:
      -----------------------------

      Number of closed shell electrons          10
      Number of electrons in active shells       4
      Max number of holes in RAS1 space          0
      Max nr of electrons in RAS3 space          0
      Number of inactive orbitals                5
      Number of active orbitals                  4
      Number of secondary orbitals             110
      Spin quantum number                      0.0
      State symmetry                             1
--

++    Orbital specifications:
      -----------------------

      Symmetry species                           1   2   3   4   5   6   7   8
                                                ag b3u b2u b1g b1u b2g b3g  au
      Frozen orbitals                            0   0   0   0   0   0   0   0
      Inactive orbitals                          3   0   0   0   2   0   0   0
      Active orbitals                            0   1   1   0   0   1   1   0
      RAS1 orbitals                              0   0   0   0   0   0   0   0
      RAS2 orbitals                              0   1   1   0   0   1   1   0
      RAS3 orbitals                              0   0   0   0   0   0   0   0
      Secondary orbitals                        25  13  13   8  20  13  13   5
      Deleted orbitals                           0   0   0   0   0   0   0   0
      Number of basis functions                 28  14  14   8  22  14  14   5
--

++    CI expansion specifications:
      ----------------------------

      Number of CSFs                             8
      Number of determinants                     9
      Number of root(s) required                 1
      CI root used                               1
      highest root included in the CI            1
      Root passed to geometry opt.               1
--

++    Final optimization conditions:
      ------------------------------

      Average CI energy                            -109.07647163
      RASSCF energy for state  1                   -109.07647163
      Super-CI energy                                -0.00000000
      RASSCF energy change                           -0.00000000
      Max change in MO coefficients              -0.142E-04
      Max non-diagonal density matrix element     0.313E-05
      Maximum BLB matrix element                 -0.131E-05
      (orbital pair   1,   2 in symmetry   2)
      Norm of electronic gradient            0.295E-05
--


      Final state energy(ies):
      ------------------------

::    RASSCF root number  1 Total energy:   -109.07647163

++    Molecular orbitals:
      -------------------

      Pseudonatural active orbitals and approximate occupation numbers




      Molecular orbitals for symmetry species 1: ag 


      Orbital                 1         2         3         4         5         6         7         8         9
      Energy           -15.6550   -1.4580   -0.6193    0.0091    0.0417    0.0509    0.0537    0.1189    0.1404
      Occ. No.           2.0000    2.0000    2.0000    0.0000    0.0000    0.0000    0.0000    0.0000    0.0000

     1 N1     1s         0.9996   -0.0238    0.0061   -0.0008   -0.0003    0.0100    0.0000    0.0046   -0.0181
     2 N1     1s         0.0018    0.8969    0.3346   -0.0321   -0.0715    0.0450   -0.0000    0.1517   -0.0245
     3 N1     1s         0.0017   -0.0066   -0.0018    0.0002   -0.0018    0.0051    0.0000   -0.0011   -0.0117
     4 N1     1s         0.0019   -0.1772    0.2328   -0.0004   -0.0701    0.4612    0.0000   -0.0077   -1.0592
     5 N1     1s         0.0028    0.0163    0.1493   -1.4357    4.0941    5.4826    0.0000   10.7343  -12.9547
     6 N1     2pz       -0.0074   -0.4820    0.9771   -0.0326   -0.0722   -0.0037    0.0000    0.1263   -0.0385
     7 N1     2pz        0.0037    0.0517   -0.0633    0.0028   -0.0025   -0.0258   -0.0000   -0.0152    0.0649
     8 N1     2pz        0.0051    0.1818   -0.1153   -0.0106    0.0332    0.2467   -0.0000    0.0921   -0.5479
     9 N1     2pz        0.0105    0.0924    0.1851   -1.4608    4.3838    8.1928    0.0000   10.8329  -19.6321
    10 N1     3d0        0.0008    0.0286   -0.0261   -0.0000    0.0016    0.0019   -0.0000    0.0023    0.0013
    11 N1     3d0       -0.0014    0.0223   -0.0226    0.0014   -0.0084   -0.0103   -0.0000   -0.0090    0.0424
    12 N1     3d0       -0.0004   -0.0351    0.0087   -0.0314    0.0683   -0.1723   -0.0000    0.2147    0.3734
    13 N1     3d2+       0.0000    0.0000    0.0000   -0.0000    0.0000    0.0000   -0.0017    0.0000   -0.0000
    14 N1     3d2+      -0.0000   -0.0000   -0.0000    0.0000   -0.0000   -0.0000    0.0167   -0.0000    0.0000
    15 N1     3d2+       0.0000    0.0000    0.0000   -0.0000    0.0000    0.0000   -0.0965    0.0000   -0.0000
    16 N1     4f0        0.0002   -0.0108    0.0082   -0.0007    0.0015   -0.0004    0.0000    0.0039   -0.0006
    17 N1     4f0        0.0006    0.0067   -0.0037    0.0026   -0.0038    0.0187    0.0000   -0.0158   -0.0436
    18 N1     4f2+      -0.0000   -0.0000    0.0000   -0.0000    0.0000    0.0000    0.0002   -0.0000    0.0000
    19 N1     4f2+      -0.0000   -0.0000    0.0000    0.0000   -0.0000   -0.0000    0.0004   -0.0000    0.0000
    20 X1     1s        -0.0037   -0.0259   -0.1314    2.7222   -8.3043   -6.9831   -0.0000  -19.0514   15.2643
    21 X1     1s        -0.0002   -0.0034    0.0287   -3.0077    7.9042    1.7697    0.0000   10.3025   -3.0918
    22 X1     1s         0.0002    0.0016   -0.0057    2.6136   -3.4876   -0.2613   -0.0000   -2.9755    0.4474
    23 X1     3d0       -0.0023    0.0037   -0.0519    0.2034   -0.5985   -0.6088   -0.0000   -1.4823    1.5638
    24 X1     3d0       -0.0026   -0.0321   -0.0368    0.5034   -1.5937   -3.6878   -0.0000   -3.6555    8.5523
    25 X1     3d0        0.0003    0.0050    0.0015   -0.1195    0.3650    1.9961    0.0000    0.4588   -2.0304
    26 X1     3d2+      -0.0000   -0.0000   -0.0000    0.0000   -0.0000   -0.0000    0.4293   -0.0000    0.0000
    27 X1     3d2+       0.0000    0.0000    0.0000   -0.0000    0.0000    0.0000   -0.9740    0.0000   -0.0000
    28 X1     3d2+      -0.0000    0.0000   -0.0000    0.0000   -0.0000   -0.0000    1.5662   -0.0000    0.0000



      Molecular orbitals for symmetry species 2: b3u


      Orbital                 1         2         3         4
      Energy             0.0000    0.0118    0.0410    0.1056
      Occ. No.           1.9354    0.0000    0.0000    0.0000

     1 N1     2px        0.9161   -0.0120    0.0508   -0.0991
     2 N1     2px       -0.0152   -0.0049   -0.0125   -0.0280
     3 N1     2px       -0.0731    0.0179    0.0513    0.1002
     4 N1     2px       -0.0078   -0.1408   -0.3370   -1.0211
     5 N1     3d1+      -0.0269    0.0005   -0.0018    0.0041
     6 N1     3d1+      -0.0463    0.0010   -0.0045    0.0090
     7 N1     3d1+      -0.0070    0.0027    0.0067    0.0155
     8 N1     4f1+       0.0103    0.0000    0.0013   -0.0003
     9 N1     4f1+       0.0001   -0.0007   -0.0017   -0.0040
    10 N1     4f3+      -0.0000   -0.0000   -0.0000   -0.0000
    11 N1     4f3+       0.0000    0.0000    0.0000    0.0000
    12 X1     2px        0.0262    0.6297    1.6973    4.6365
    13 X1     2px       -0.0171   -1.3441   -3.6320   -4.2908
    14 X1     2px        0.0055    1.7950    1.9508    1.5067



      Molecular orbitals for symmetry species 3: b2u


      Orbital                 1         2         3         4
      Energy             0.0000    0.0118    0.0410    0.1056
      Occ. No.           1.9354    0.0000    0.0000    0.0000

     1 N1     2py        0.9161   -0.0120    0.0508   -0.0991
     2 N1     2py       -0.0152   -0.0049   -0.0125   -0.0280
     3 N1     2py       -0.0731    0.0179    0.0513    0.1002
     4 N1     2py       -0.0078   -0.1408   -0.3370   -1.0211
     5 N1     3d1-      -0.0269    0.0005   -0.0018    0.0041
     6 N1     3d1-      -0.0463    0.0010   -0.0045    0.0090
     7 N1     3d1-      -0.0070    0.0027    0.0067    0.0155
     8 N1     4f3-       0.0000    0.0000    0.0000    0.0000
     9 N1     4f3-      -0.0000   -0.0000   -0.0000   -0.0000
    10 N1     4f1-       0.0103    0.0000    0.0013   -0.0003
    11 N1     4f1-       0.0001   -0.0007   -0.0017   -0.0040
    12 X1     2py        0.0262    0.6297    1.6973    4.6365
    13 X1     2py       -0.0171   -1.3441   -3.6320   -4.2908
    14 X1     2py        0.0055    1.7950    1.9508    1.5067



      Molecular orbitals for symmetry species 4: b1g


      Orbital                 1
      Energy             0.0537
      Occ. No.           0.0000

     1 N1     3d2-      -0.0017
     2 N1     3d2-       0.0167
     3 N1     3d2-      -0.0965
     4 N1     4f2-       0.0002
     5 N1     4f2-       0.0004
     6 X1     3d2-       0.4293
     7 X1     3d2-      -0.9740
     8 X1     3d2-       1.5662



      Molecular orbitals for symmetry species 5: b1u


      Orbital                 1         2         3         4         5
      Energy           -15.6515   -0.7675    0.0120    0.0417    0.1048
      Occ. No.           2.0000    2.0000    0.0000    0.0000    0.0000

     1 N1     1s         0.9992    0.0058   -0.0008    0.0004   -0.0044
     2 N1     1s        -0.0019    0.9258   -0.0162   -0.0446   -0.1168
     3 N1     1s         0.0011   -0.0018    0.0002   -0.0016   -0.0011
     4 N1     1s         0.0308    0.3293    0.1216   -0.2789    1.4557
     5 N1     1s         0.0111    0.0865    1.5577   -3.7034   13.3366
     6 N1     2pz       -0.0045    0.4475   -0.0048   -0.0196   -0.0335
     7 N1     2pz        0.0010   -0.0309   -0.0034    0.0062   -0.0476
     8 N1     2pz       -0.0121   -0.1631   -0.0653    0.1221   -0.8332
     9 N1     2pz       -0.0026   -0.0114   -0.6979    1.6625   -5.7064
    10 N1     3d0        0.0009   -0.0048    0.0003    0.0004    0.0023
    11 N1     3d0        0.0013   -0.0026    0.0011    0.0037    0.0293
    12 N1     3d0        0.0022    0.0201    0.0286   -0.0629    0.2617
    13 N1     3d2+      -0.0000   -0.0000    0.0000    0.0000   -0.0000
    14 N1     3d2+       0.0000    0.0000    0.0000   -0.0000    0.0000
    15 N1     3d2+       0.0000   -0.0000    0.0000   -0.0000    0.0000
    16 N1     4f0       -0.0007   -0.0014    0.0003   -0.0010   -0.0001
    17 N1     4f0       -0.0000    0.0004   -0.0031    0.0065   -0.0218
    18 N1     4f2+       0.0000    0.0000   -0.0000   -0.0000    0.0000
    19 N1     4f2+       0.0000    0.0000   -0.0000    0.0000   -0.0000
    20 X1     2pz        0.0005    0.0061    0.9813   -2.5895    7.1148
    21 X1     2pz       -0.0001   -0.0038   -1.5745    4.0971   -5.1449
    22 X1     2pz        0.0000    0.0013    1.8821   -2.0533    1.6609



      Molecular orbitals for symmetry species 6: b2g


      Orbital                 1         2         3
      Energy             0.0000    0.0499    0.1387
      Occ. No.           0.0646    0.0000    0.0000

     1 N1     2px        1.3745   -0.0156   -0.0522
     2 N1     2px       -0.0067    0.0120   -0.0268
     3 N1     2px       -0.0614    0.5112   -1.1187
     4 N1     2px        0.3685   12.3855  -29.7476
     5 N1     3d1+      -0.0003    0.0022   -0.0047
     6 N1     3d1+      -0.0655   -0.0466    0.1041
     7 N1     3d1+      -0.0663   -0.1993    0.3799
     8 N1     4f1+      -0.0129    0.0011   -0.0025
     9 N1     4f1+       0.0198    0.0305   -0.0614
    10 N1     4f3+       0.0000   -0.0000    0.0000
    11 N1     4f3+      -0.0000    0.0000   -0.0000
    12 X1     3d1+      -0.0629   -0.8370    2.0946
    13 X1     3d1+      -0.0751   -4.3536   10.1061
    14 X1     3d1+       0.0073    2.1276   -2.2500



      Molecular orbitals for symmetry species 7: b3g


      Orbital                 1         2         3
      Energy             0.0000    0.0499    0.1387
      Occ. No.           0.0646    0.0000    0.0000

     1 N1     2py        1.3745   -0.0156   -0.0522
     2 N1     2py       -0.0067    0.0120   -0.0268
     3 N1     2py       -0.0614    0.5112   -1.1187
     4 N1     2py        0.3685   12.3855  -29.7476
     5 N1     3d1-      -0.0003    0.0022   -0.0047
     6 N1     3d1-      -0.0655   -0.0466    0.1041
     7 N1     3d1-      -0.0663   -0.1993    0.3799
     8 N1     4f3-      -0.0000    0.0000   -0.0000
     9 N1     4f3-       0.0000   -0.0000    0.0000
    10 N1     4f1-      -0.0129    0.0011   -0.0025
    11 N1     4f1-       0.0198    0.0305   -0.0614
    12 X1     3d1-      -0.0629   -0.8370    2.0946
    13 X1     3d1-      -0.0751   -4.3536   10.1061
    14 X1     3d1-       0.0073    2.1276   -2.2500
--

      Von Neumann Entropy (Root  1) =  0.41156


      Mulliken population analysis for root number:  1
      -----------------------------------------------


++    Molecular charges:
      ------------------

      Mulliken charges per centre and basis function type
      ---------------------------------------------------

                N1      X1    
      1s       4.0537 -0.1048
      2px      0.9686  0.0072
      2pz      1.0138  0.0023
      2py      0.9686  0.0072
      3d2+     0.0000  0.0000
      3d1+     0.0266 -0.0016
      3d0      0.0010 -0.0383
      3d1-     0.0266 -0.0016
      3d2-     0.0000  0.0000
      4f3+     0.0000  0.0000
      4f2+     0.0000  0.0000
      4f1+     0.0019  0.0000
      4f0      0.0019  0.0000
      4f1-     0.0019  0.0000
      4f2-     0.0000  0.0000
      4f3-     0.0000  0.0000
      Total    7.0647 -0.1294

      N-E     -0.0647  0.1294

      Total electronic charge=   14.000000

      Total            charge=   -0.000000
--



      Expectation values of various properties for root number:  1
      -----------------------------------------------------------


++    Molecular properties:
      ---------------------

      Charge (e):
                      =   -0.0000
      Dipole Moment (Debye):
      Origin of the operator (Ang)=    0.0000    0.0000    0.0000
                   X=  0.0000E+00               Y=  0.0000E+00               Z=  0.0000E+00           Total=  0.0000E+00
      Quadrupole Moment (Debye*Ang):
      Origin of the operator (Ang)=    0.0000    0.0000    0.0000
                  XX= -1.0175E+01              XY=  0.0000E+00              XZ=  0.0000E+00              YY= -1.0175E+01
                  YZ=  0.0000E+00              ZZ= -1.1863E+01
      In traceless form (Debye*Ang)
                  XX=  8.4391E-01              XY=  0.0000E+00              XZ=  0.0000E+00              YY=  8.4391E-01
                  YZ=  0.0000E+00              ZZ= -1.6878E+00
--


  Input file to MOLDEN was generated!

      Average orbitals are written to the RASORB file
      Natural orbitals for root   1 are written to the RASORB.1 file
      Spin density orbitals for root   1 are written to the SPDORB.1 file

--- Stop Module: rasscf at Thu May 13 19:25:20 2021 /rc=_RC_ALL_IS_WELL_ ---
*** files: xms.rasscf.molden xms.RasOrb xms.RasOrb.1 xms.rasscf.h5 xms.SpdOrb.1 xmldump
    saved to directory /home/gayverjr/final_opencap_examples/openmolcas/symm
--- Module rasscf spent 1 second ---

>>> COPY /home/gayverjr/final_opencap_examples/openmolcas/symm/xms.RasOrb INPORB

--- Start Module: rasscf at Thu May 13 19:25:20 2021 ---

()()()()()()()()()()()()()()()()()()()()()()()()()()()()()()()()()()()()()()()()()()()()()()()()()()

                                              &RASSCF

                                   only a single process is used
                       available to each process: 20 GB of memory, 16 threads
                                             pid: 20382
()()()()()()()()()()()()()()()()()()()()()()()()()()()()()()()()()()()()()()()()()()()()()()()()()()


      Header of the ONEINT file:
      --------------------------
      
      Integrals generated by Gateway/Seward, Thu May 13 19:25:12 2021


      OrdInt status: non-squared


      Cartesian coordinates in Angstrom:
      -----------------------------------------------------
      No.  Label        X            Y            Z        
      -----------------------------------------------------
       1   N1         0.00000000   0.00000000   0.54981512
       2   X1         0.00000000   0.00000000   0.00000000
       3   N1         0.00000000   0.00000000  -0.54981512
      -----------------------------------------------------
      Nuclear repulsion energy =   23.58036574

++    Wave function specifications:
      -----------------------------

      Number of closed shell electrons          10
      Number of electrons in active shells       5
      Max number of holes in RAS1 space          0
      Max nr of electrons in RAS3 space          0
      Number of inactive orbitals                5
      Number of active orbitals                 10
      Number of secondary orbitals             104
      Spin quantum number                      0.5
      State symmetry                             6
--

++    Orbital specifications:
      -----------------------

      Symmetry species                           1   2   3   4   5   6   7   8
                                                ag b3u b2u b1g b1u b2g b3g  au
      Frozen orbitals                            0   0   0   0   0   0   0   0
      Inactive orbitals                          3   0   0   0   2   0   0   0
      Active orbitals                            0   1   1   0   0   4   4   0
      RAS1 orbitals                              0   0   0   0   0   0   0   0
      RAS2 orbitals                              0   1   1   0   0   4   4   0
      RAS3 orbitals                              0   0   0   0   0   0   0   0
      Secondary orbitals                        25  13  13   8  20  10  10   5
      Deleted orbitals                           0   0   0   0   0   0   0   0
      Number of basis functions                 28  14  14   8  22  14  14   5
--

++    CI expansion specifications:
      ----------------------------

      Number of CSFs                           872
      Number of determinants                  1376
      Number of root(s) required                10
      Root chosen for geometry opt.             10
      CI roots used                              1     2     3     4     5     6     7     8     9    10
      weights                                0.100 0.100 0.100 0.100 0.100 0.100 0.100 0.100 0.100 0.100
      highest root included in the CI           10
      max. size of the explicit Hamiltonian    200
--

++    Optimization specifications:
      ----------------------------

      RASSCF algorithm: Conventional
      Maximum number of macro iterations       200
      Maximum number of SX iterations          100
      Threshold for RASSCF energy            0.100E-07
      Threshold for max MO rotation          0.100E+00
      Threshold for max BLB element          0.100E-03
      Level shift parameter                  0.500E+00
      Make Quasi-Newton update
--

      The MO-coefficients are taken from the file:
      INPORB                                                                                                                          
      Title: RASSCF average (pseudo-natural) orbitals                                      

      Total molecular charge   -1.00

      ************************************************************************************************************************
      *                                                                                                                      *
      *                                            Wave function control section                                             *
      *                                                                                                                      *
      ************************************************************************************************************************


                                         RASSCF iterations: Energy and convergence statistics
                                         ----------------------------------------------------

      Iter CI   SX   CI       RASSCF       Energy    max ROT     max BLB   max BLB  Level Ln srch  Step   QN   Walltime
          iter iter root      energy       change     param      element    value   shift minimum  type update hh:mm:ss
 Nr of preliminary CI iterations:   4
        1   1   38    0  -108.51009897    0.00E+00  -0.26E+00*   1   7 6  0.10E+00*  0.64   0.00    SX    NO    0:00:00
        2   4   21    0  -108.55880091   -0.49E-01*  0.73E-01    1   7 6  0.38E-01*  0.57   0.00    SX    NO    0:00:00
        3   1   23    0  -108.56505075   -0.62E-02*  0.42E-01    1   7 6  0.16E-01*  0.55   0.00    SX    NO    0:00:00
        4   5   22    0  -108.56657695   -0.15E-02* -0.32E-01    1   5 6 -0.80E-02*  0.55   0.00    SX    NO    0:00:00
        5   4   21    0  -108.56704753   -0.47E-03* -0.41E-01    1   5 6 -0.46E-02*  0.55   2.50    LS   YES    0:00:00
        6   5   22    0  -108.56726988   -0.22E-03* -0.20E-01    1   5 7  0.20E-02*  0.55   1.06    QN   YES    0:00:00
        7   3   20    0  -108.56732870   -0.59E-04* -0.28E-01    1   5 7  0.16E-02*  0.55   2.50    LS   YES    0:00:00
        8   5   20    0  -108.56738336   -0.55E-04* -0.33E-01    1   7 7 -0.13E-02*  0.56   2.35    LS   YES    0:00:00
        9   5   22    0  -108.56741043   -0.27E-04* -0.22E-01    1   5 6  0.17E-02*  0.56   1.15    QN   YES    0:00:00
       10   5   22    0  -108.56745083   -0.40E-04* -0.71E-01    1   5 6  0.12E-02*  0.56   2.50    QN   YES    0:00:00
       11   8   22    0  -108.56754455   -0.94E-04*  0.14E+00*   1   7 6  0.98E-03*  0.56   1.79    QN   YES    0:00:00
       12   7   23    0  -108.56762105   -0.77E-04* -0.43E-01    1   7 7  0.18E-02*  0.56   1.00    QN   YES    0:00:00
       13   4   23    0  -108.56767141   -0.50E-04* -0.15E+00*   1   7 7  0.16E-02*  0.56   2.50    QN   YES    0:00:00
       14   5   22    0  -108.56784372   -0.17E-03* -0.10E+00*   1   5 6 -0.10E-02*  0.56   1.99    LS   YES    0:00:00
       15   5   21    0  -108.56789516   -0.51E-04*  0.88E-01    1   7 6 -0.16E-02*  0.56   1.64    QN   YES    0:00:00
       16   5   21    0  -108.56794602   -0.51E-04*  0.94E-01    1   7 6 -0.14E-02*  0.56   2.50    LS   YES    0:00:00
       17   5   22    0  -108.56798456   -0.39E-04*  0.99E-01    2   8 5 -0.11E-02*  0.56   2.50    LS   YES    0:00:00
       18   5   22    0  -108.56801037   -0.26E-04* -0.11E+00*   1   7 2  0.12E-02*  0.56   2.50    QN   YES    0:00:00
       19   5   21    0  -108.56804349   -0.33E-04* -0.10E+00*   1   7 2  0.76E-03*  0.56   2.42    LS   YES    0:00:00
       20   5   21    0  -108.56805851   -0.15E-04*  0.31E-01    1   6 6 -0.45E-03*  0.56   1.44    QN   YES    0:00:00
       21   5   21    0  -108.56806828   -0.98E-05*  0.35E-01    1   7 6  0.34E-03*  0.56   2.28    LS   YES    0:00:00
       22   5   21    0  -108.56807259   -0.43E-05*  0.24E-01    2   8 5  0.40E-03*  0.56   1.10    QN   YES    0:00:00
       23   5   20    0  -108.56807796   -0.54E-05*  0.33E-01    1  12 7  0.37E-03*  0.56   2.50    LS   YES    0:00:00
       24   5   20    0  -108.56808216   -0.42E-05*  0.18E-01    1  12 7  0.46E-03*  0.56   1.67    QN   YES    0:00:00
       25   5   18    0  -108.56808685   -0.47E-05*  0.19E-01    1  12 7  0.36E-03*  0.56   2.09    LS   YES    0:00:00
       26   5   20    0  -108.56808862   -0.18E-05* -0.23E-01    1   7 6 -0.33E-03*  0.56   1.08    QN   YES    0:00:00
       27   5   20    0  -108.56809067   -0.21E-05* -0.29E-01    1  10 7 -0.19E-03*  0.56   2.37    LS   YES    0:00:00
       28   5   19    0  -108.56809169   -0.10E-05* -0.71E-02    1  10 7 -0.22E-03*  0.56   1.09    QN   YES    0:00:00
       29   4   18    0  -108.56809253   -0.83E-06* -0.32E-01    1  10 7 -0.14E-03*  0.56   2.50    QN   YES    0:00:00
       30   5   18    0  -108.56809442   -0.19E-05* -0.15E-01    2  10 5  0.17E-03*  0.56   1.33    QN   YES    0:00:00
       31   5   18    0  -108.56809499   -0.56E-06* -0.20E-01    2  10 5  0.15E-03*  0.56   2.20    QN   YES    0:00:00
       32   5   18    0  -108.56809567   -0.68E-06* -0.15E-01    1  10 7  0.87E-04   0.56   1.73    QN   YES    0:00:00
       33   5   18    0  -108.56809615   -0.48E-06* -0.11E-01    1   6 6  0.64E-04   0.56   1.80    QN   YES    0:00:00
       34   5   17    0  -108.56809650   -0.35E-06* -0.62E-02    2  10 5 -0.94E-04   0.56   1.62    QN   YES    0:00:00
       35   4   16    0  -108.56809667   -0.17E-06*  0.21E-02    3  12 1  0.70E-04   0.56   1.49    QN   YES    0:00:00
       36   3   15    0  -108.56809673   -0.62E-07*  0.16E-02    3   9 1  0.33E-04   0.56   1.43    QN   YES    0:00:00
       37   2   14    0  -108.56809675   -0.21E-07*  0.76E-03    1   7 7  0.13E-04   0.56   1.52    QN   YES    0:00:00
       38   2   12    0  -108.56809676   -0.11E-07* -0.69E-03    2  10 5  0.19E-04   0.56   1.59    QN   YES    0:00:00
       39   2   12    0  -108.56809677   -0.66E-08  -0.75E-03    3  12 1 -0.16E-04   0.56   1.47    QN   YES    0:00:00
      Convergence after 39 iterations
       40   2   12    0  -108.56809677   -0.33E-08  -0.75E-03    3   9 1 -0.10E-04   0.56   1.47    QN   YES    0:00:00

      ************************************************************************************************************************
                                                      Wave function printout:
                       occupation of active orbitals, and spin coupling of open shells (u,d: Spin up or down)
      ************************************************************************************************************************

      Note: transformation to natural orbitals
      has been made, which may change the order of the CSFs.

      printout of CI-coefficients larger than  0.05 for root  1
      energy=    -109.019596
      conf/sym  2 3 6666 7777     Coeff  Weight
             1  2 2 u000 0000  -0.12754 0.01627
             2  2 2 0u00 0000  -0.95849 0.91870
             4  0 2 2u00 0000   0.13369 0.01787
            46  u d ud00 u000   0.05613 0.00315
            91  u d uu00 d000  -0.09922 0.00984
            95  u u du00 d000   0.08155 0.00665
           170  2 0 0u00 2000  -0.13116 0.01720

      printout of CI-coefficients larger than  0.05 for root  2
      energy=    -108.940575
      conf/sym  2 3 6666 7777     Coeff  Weight
             1  2 2 u000 0000   0.39878 0.15902
             2  2 2 0u00 0000  -0.06237 0.00389
             7  2 2 00u0 0000   0.86918 0.75547
             9  0 2 20u0 0000  -0.12494 0.01561
            23  2 2 000u 0000  -0.13939 0.01943
           107  u d u0u0 d000   0.09268 0.00859
           111  u u d0u0 d000  -0.07457 0.00556
           136  2 0 u000 2000   0.05744 0.00330
           238  2 0 00u0 2000   0.11870 0.01409

      printout of CI-coefficients larger than  0.05 for root  3
      energy=    -108.864187
      conf/sym  2 3 6666 7777     Coeff  Weight
             1  2 2 u000 0000  -0.76224 0.58101
             2  2 2 0u00 0000   0.09886 0.00977
             7  2 2 00u0 0000   0.26350 0.06943
            23  2 2 000u 0000  -0.53714 0.28852
            25  0 2 200u 0000   0.08113 0.00658
            42  u d 2000 u000   0.07000 0.00490
            87  u u 2000 d000   0.07638 0.00583
           136  2 0 u000 2000  -0.11172 0.01248
           374  u d u00u d000  -0.06007 0.00361
           421  2 0 000u 2000  -0.07305 0.00534

      printout of CI-coefficients larger than  0.05 for root  4
      energy=    -108.737555
      conf/sym  2 3 6666 7777     Coeff  Weight
             1  2 2 u000 0000   0.44879 0.20141
             2  2 2 0u00 0000  -0.05264 0.00277
             7  2 2 00u0 0000  -0.33189 0.11015
            23  2 2 000u 0000  -0.79197 0.62722
            25  0 2 200u 0000   0.10549 0.01113
            87  u u 2000 d000  -0.05293 0.00280
           136  2 0 u000 2000   0.06799 0.00462
           374  u d u00u d000  -0.07848 0.00616
           382  u u d00u d000   0.06646 0.00442
           421  2 0 000u 2000  -0.10859 0.01179

      printout of CI-coefficients larger than  0.05 for root  5
      energy=    -108.391092
      conf/sym  2 3 6666 7777     Coeff  Weight
            46  u d ud00 u000   0.13933 0.01941
            50  u u dd00 u000   0.09406 0.00885
            87  u u 2000 d000  -0.08036 0.00646
            88  u u 2000 0d00  -0.48626 0.23644
            91  u d uu00 d000   0.05219 0.00272
            99  u u ud00 d000  -0.12166 0.01480
           136  2 0 u000 2000  -0.07795 0.00608
           138  2 0 u000 ud00  -0.46832 0.21932
           153  0 2 u000 2000   0.07288 0.00531
[...]
     4 N1     1s        -3.8307   -0.6231   63.0860   42.1444   -0.1205   13.9690   55.0296   -0.2018    8.7518   -0.0252
     5 N1     1s        -1.5113   -0.4207   40.3654   15.2975   -0.0693   11.4757   24.7423   -0.0458    1.9040   -0.0106
     6 N1     2pz       -1.2381   -0.0069    0.6254   -0.6164    0.0043   -1.6210    3.3682    0.0134   -0.6321   -0.0025
     7 N1     2pz        0.0845    0.0324   -3.3850   -3.1658    0.0082   -0.4400   -9.7495    0.0351   -1.5711    0.0053
     8 N1     2pz        3.5428    0.2998  -29.9790  -19.4434    0.0593   -7.2248  -26.1486    0.0972   -4.2323    0.0107
     9 N1     2pz       -0.8794    0.0976   -9.4774   -2.4610    0.0133   -2.5024   -5.6438    0.0001    0.0391    0.0032
    10 N1     3d0       -0.0419   -0.0006    0.0623    0.0956    0.0002   -0.1363    0.0353    0.0079   -0.3529   -0.0018
    11 N1     3d0       -0.7070   -0.0201    2.0410    2.2711   -0.0095    2.0485    3.9143   -0.0304    1.3872   -0.0004
    12 N1     3d0        0.4049   -0.0577    5.8602    2.2249   -0.0088    1.5749    4.2270   -0.0054    0.2095   -0.0025
    13 N1     3d2+       0.0000    0.0324    0.0007    0.0001    0.0251   -0.0002   -0.0005    1.1077    0.0252   -0.6308
    14 N1     3d2+      -0.0002    0.4243    0.0041   -0.0039   -2.2395   -0.0049    0.0001   -1.2688   -0.0290    0.7380
    15 N1     3d2+       0.0005   -1.6364   -0.0160   -0.0009   -0.8705   -0.0022    0.0003    0.3698    0.0073    0.4821
    16 N1     4f0        0.0720    0.0011   -0.1152   -0.3035    0.0001    0.1947   -0.2966    0.0277   -1.2760   -0.0011
    17 N1     4f0       -0.2216    0.0110   -1.0919    1.2787    0.0016   -1.6106   -0.5441   -0.0097    0.4438    0.0005
    18 N1     4f2+       0.0003   -0.1011   -0.0010   -0.0000   -0.0869   -0.0002    0.0009    0.6166    0.0114    1.2972
    19 N1     4f2+      -0.0011    1.3388    0.0129    0.0034    2.3265    0.0054   -0.0004    0.2045    0.0062   -1.0581
    20 X1     2pz        1.4027   -0.0184    1.9354   -0.4857    0.0001    0.2792    1.0710    0.0098   -0.4607   -0.0015
    21 X1     2pz       -0.7465    0.0035   -0.4311    0.4415   -0.0010    0.0329   -0.2199   -0.0057    0.2645    0.0006
    22 X1     2pz        0.2192   -0.0005    0.0779   -0.1446    0.0004   -0.0258    0.0363    0.0017   -0.0803   -0.0002


      Orbital                21        22
      Energy             0.0000    0.0000
      Occ. No.           0.0000    0.0000

     1 N1     1s         0.5022    7.2568
     2 N1     1s         0.6110   21.5095
     3 N1     1s        -0.7445   -6.0065
     4 N1     1s        -8.2571   15.7833
     5 N1     1s        -0.8785   10.8820
     6 N1     2pz        0.5720    1.9955
     7 N1     2pz        1.6124  -12.3934
     8 N1     2pz        2.8565  -12.0728
     9 N1     2pz        0.2320   -2.0889
    10 N1     3d0       -1.5376    1.0594
    11 N1     3d0        0.0075    5.1456
    12 N1     3d0       -0.3655    1.6213
    13 N1     3d2+       0.0007    0.0000
    14 N1     3d2+      -0.0009   -0.0000
    15 N1     3d2+      -0.0003   -0.0000
    16 N1     4f0        1.0248   -0.9825
    17 N1     4f0       -0.7538   -1.0011
    18 N1     4f2+      -0.0009   -0.0000
    19 N1     4f2+       0.0009    0.0000
    20 X1     2pz       -0.1205   -0.0272
    21 X1     2pz        0.0636    0.1767
    22 X1     2pz       -0.0196   -0.0671



      Molecular orbitals for symmetry species 6: b2g


      Orbital                 1         2         3         4         5         6         7         8         9        10
      Energy             0.0000    0.0000    0.0000    0.0000    0.0000    0.0000    0.0000    0.0000    0.0000    0.0000
      Occ. No.           0.7186    0.3976    0.1033    0.1003    0.0000    0.0000    0.0000    0.0000    0.0000    0.0000

     1 N1     2px        1.0766   -0.1004   -0.1930   -0.1922   -0.3364    0.2391    0.7698   -0.0016   -0.0654    1.0664
     2 N1     2px        0.0184    0.0113   -0.0204    0.0257    0.0651    0.3094    0.0353    0.0054    1.1587    1.4524
     3 N1     2px        0.3145    0.4981   -0.6223    2.0929   -0.1982   11.3262  -13.6707    0.0600    8.5520   13.5305
     4 N1     2px        0.9069   12.3113  -13.7774   63.9807  -59.0271   17.4630  -39.5538    0.0566    2.6850   25.2744
     5 N1     3d1+       0.0084    0.0016   -0.0035    0.0099   -0.0114    0.0186   -0.0673    0.0004    0.0552    0.0623
     6 N1     3d1+       0.0094   -0.0477    0.0472   -0.2165    0.1663   -0.6462    1.2206   -0.0062   -0.7447   -4.7834
     7 N1     3d1+      -0.0523   -0.2018    0.2606   -0.5115   -2.1230   -7.5180    3.9710   -0.0276   -4.8509   -3.9949
     8 N1     4f1+      -0.0067    0.0017    0.0013    0.0111   -0.0262   -0.0206   -0.0506   -0.0002   -0.0738    0.1349
     9 N1     4f1+      -0.0041    0.0311   -0.0329    0.1140    0.0512    0.6115   -0.6805    0.0092    1.8023    2.0104
    10 N1     4f3+      -0.0001   -0.0001    0.0002    0.0002    0.0002   -0.0001   -0.0004   -0.1271    0.0005    0.0001
    11 N1     4f3+       0.0000   -0.0001   -0.0002   -0.0001   -0.0006    0.0003    0.0025    1.4327   -0.0061   -0.0003
    12 X1     3d1+      -0.0454   -0.8268    0.6551   -5.6021   10.5988    1.1998    6.5435   -0.0026    1.2744   -4.2370
    13 X1     3d1+      -0.2472   -4.3347    5.9101  -17.1896   11.7577   -5.1980    8.0480   -0.0137   -1.1323   -5.1343
    14 X1     3d1+       0.1009    2.1226   -1.6824    2.4640   -0.9508    0.7464   -0.7219    0.0017    0.2049    0.4713


      Orbital                11        12        13        14
      Energy             0.0000    0.0000    0.0000    0.0000
      Occ. No.           0.0000    0.0000    0.0000    0.0000

     1 N1     2px       -3.0392   -0.0025    2.3633   -1.1639
     2 N1     2px        4.4208    0.0030   -5.4957    2.9589
     3 N1     2px        4.6222   -0.0015   -9.0048   -0.1609
     4 N1     2px       -2.6252   -0.0193  -13.3291   -0.1265
     5 N1     3d1+      -0.2673   -0.0009   -0.9825   -0.9608
     6 N1     3d1+      -1.8163    0.0007    5.4073   -1.8101
     7 N1     3d1+      -2.1246   -0.0007    2.1235    0.6518
     8 N1     4f1+      -0.5390   -0.0009   -0.9050    1.7694
     9 N1     4f1+       1.3037    0.0006   -1.5623   -0.0211
    10 N1     4f3+      -0.0015    1.2200   -0.0006   -0.0002
    11 N1     4f3+       0.0008   -0.6712    0.0004    0.0001
    12 X1     3d1+       1.1886    0.0037    2.3620   -0.3344
    13 X1     3d1+       0.2909    0.0037    2.6700    0.1553
    14 X1     3d1+       0.0166   -0.0002   -0.2404   -0.0371



      Molecular orbitals for symmetry species 7: b3g


      Orbital                 1         2         3         4         5         6         7         8         9        10
      Energy             0.0000    0.0000    0.0000    0.0000    0.0000    0.0000    0.0000    0.0000    0.0000    0.0000
      Occ. No.           0.6309    0.2944    0.0002    0.0022    0.0000    0.0000    0.0000    0.0000    0.0000    0.0000

     1 N1     2py        1.0925   -0.1187   -0.0489   -1.3829    0.0791   -0.1554    0.0905    0.4033   -0.0637    0.8704
     2 N1     2py        0.0185    0.0113    0.0378    0.1481   -0.0211   -0.0402    0.2934   -0.0648    1.1590    1.2704
     3 N1     2py        0.3199    0.4965    0.0990    1.4145   -1.7231   -2.2170    7.3475  -14.9902    8.5524   14.6133
     4 N1     2py        1.3127   12.1143    0.2513   -0.4496  -43.5490  -70.4696  -17.4284  -48.4542    2.6389   27.6569
     5 N1     3d1-       0.0071    0.0017   -0.0037    0.0291   -0.0096   -0.0095    0.0006   -0.0616    0.0551    0.0695
     6 N1     3d1-       0.0010   -0.0460   -0.0122    0.3254    0.1420    0.2891   -0.3427    1.0686   -0.7450   -4.7295
     7 N1     3d1-      -0.0618   -0.2017   -0.0145    0.1239    0.5286    0.1553   -6.6882    5.5186   -4.8506   -4.1472
     8 N1     4f3-      -0.0001   -0.0001   -0.7481    0.0217   -0.0009    0.0016   -0.0013   -0.0028    0.0006   -0.0027
     9 N1     4f3-      -0.0001   -0.0001   -0.5762   -0.0121   -0.0022    0.0041   -0.0042   -0.0122   -0.0064   -0.0006
    10 N1     4f1-      -0.0066    0.0017    0.0040    0.0275   -0.0057   -0.0148   -0.0346   -0.0319   -0.0739    0.1398
    11 N1     4f1-      -0.0020    0.0307    0.0020   -0.1138   -0.0883   -0.1127    0.4595   -0.6890    1.8025    2.0001
    12 X1     3d1-      -0.0826   -0.8042   -0.0515    0.1739    3.0383    8.6350    7.0755    7.1138    1.2776   -4.6809
    13 X1     3d1-      -0.3685   -4.2774   -0.0492    0.3360   13.7658   16.0487    1.9151   10.2688   -1.1206   -5.5555
    14 X1     3d1-       0.1365    2.1104    0.0044   -0.2331   -2.6983   -1.5817    0.0898   -1.0378    0.2037    0.4707


      Orbital                11        12        13        14
      Energy             0.0000    0.0000    0.0000    0.0000
      Occ. No.           0.0000    0.0000    0.0000    0.0000

     1 N1     2py       -0.0449   -2.9688   -2.2665   -1.1342
     2 N1     2py        0.0484    4.5168    5.4712    2.9404
     3 N1     2py        0.0192    4.8036    8.9597   -0.1966
     4 N1     2py       -0.2278   -2.1894   13.4337   -0.1150
     5 N1     3d1-      -0.0041   -0.2588    0.9820   -0.9633
     6 N1     3d1-      -0.0087   -1.9827   -5.4454   -1.8054
     7 N1     3d1-      -0.0139   -2.2082   -2.1272    0.6541
     8 N1     4f3-      -0.9717    0.0141    0.0000    0.0039
     9 N1     4f3-       1.4733   -0.0103    0.0013    0.0001
    10 N1     4f1-      -0.0034   -0.5249    0.9160    1.7678
    11 N1     4f1-       0.0123    1.3618    1.5687   -0.0224
    12 X1     3d1-       0.0544    1.1169   -2.3904   -0.3358
    13 X1     3d1-       0.0458    0.1881   -2.6977    0.1494
    14 X1     3d1-      -0.0068    0.0365    0.2504   -0.0341



      Molecular orbitals for symmetry species 8: au 


      Orbital                 1         2         3         4         5
      Energy             0.0000    0.0000    0.0000    0.0000    0.0000
      Occ. No.           0.0000    0.0000    0.0000    0.0000    0.0000

     1 N1     3d2-       0.0243    0.0324    0.0251    1.1080   -0.6308
     2 N1     3d2-      -0.0201    0.4243   -2.2395   -1.2691    0.7380
     3 N1     3d2-       2.2278   -1.6364   -0.8705    0.3699    0.4821
     4 N1     4f2-       0.0357   -0.1011   -0.0869    0.6167    1.2972
     5 N1     4f2-      -0.2957    1.3389    2.3265    0.2045   -1.0581
--

      Von Neumann Entropy (Root  1) =  0.42504


      Mulliken population analysis for root number:  1
      -----------------------------------------------


++    Molecular charges:
      ------------------

      Mulliken charges per centre and basis function type
      ---------------------------------------------------

                N1      X1    
      1s       4.1048 -0.1107
      2px      0.9621  0.0076
      2pz      0.9600  0.0026
      2py      0.9722  0.0074
      3d2+     0.0000  0.0000
      3d1+     0.0238  0.0159
      3d0      0.0056 -0.0377
      3d1-     0.0230 -0.0014
      3d2-     0.0000  0.0000
      4f3+     0.0000  0.0000
      4f2+     0.0000  0.0000
      4f1+     0.0023  0.0000
      4f0      0.0026  0.0000
      4f1-     0.0018  0.0000
      4f2-     0.0000  0.0000
      4f3-     0.0001  0.0000
      Total    7.0581 -0.1163

      N-E     -0.0581  0.1163

      Total electronic charge=   14.000000

      Total            charge=   -0.000000
--



      Expectation values of various properties for root number:  1
      -----------------------------------------------------------


++    Molecular properties:
      ---------------------

      Charge (e):
                      =   -0.0000
      Dipole Moment (Debye):
      Origin of the operator (Ang)=    0.0000    0.0000    0.0000
                   X=  0.0000E+00               Y=  0.0000E+00               Z=  0.0000E+00           Total=  0.0000E+00
      Quadrupole Moment (Debye*Ang):
      Origin of the operator (Ang)=    0.0000    0.0000    0.0000
                  XX= -1.0299E+01              XY=  0.0000E+00              XZ=  0.0000E+00              YY= -1.0274E+01
                  YZ=  0.0000E+00              ZZ= -1.1797E+01
      In traceless form (Debye*Ang)
                  XX=  7.3624E-01              XY=  0.0000E+00              XZ=  0.0000E+00              YY=  7.7426E-01
                  YZ=  0.0000E+00              ZZ= -1.5105E+00
--


  Input file to MOLDEN was generated!

      Average orbitals are written to the RASORB file
      Natural orbitals for root   1 are written to the RASORB.1 file
      Spin density orbitals for root   1 are written to the SPDORB.1 file

--- Stop Module: rasscf at Thu May 13 19:26:10 2021 /rc=_RC_ALL_IS_WELL_ ---
*** files: xms.rasscf.molden xms.RasOrb xms.RasOrb.1 xms.rasscf.h5 xms.SpdOrb.1 xmldump
    saved to directory /home/gayverjr/final_opencap_examples/openmolcas/symm

--- Start Module: caspt2 at Thu May 13 19:26:11 2021 ---

()()()()()()()()()()()()()()()()()()()()()()()()()()()()()()()()()()()()()()()()()()()()()()()()()()

                                              &CASPT2

                                   only a single process is used
                       available to each process: 20 GB of memory, 16 threads
                                             pid: 29261
()()()()()()()()()()()()()()()()()()()()()()()()()()()()()()()()()()()()()()()()()()()()()()()()()()


++    Wave function specifications:
      -----------------------------

      Number of closed shell electrons           6
      Number of electrons in active shells       4
      Max number of holes in RAS1 space          0
      Max number of electrons in RAS3 space      0
      Number of inactive orbitals                3
      Number of active orbitals                 10
      Number of secondary orbitals             104
      Spin quantum number                      0.0
      State symmetry                             1
      Number of CSFs                           249
      Number of root(s) available                1
      Root passed to geometry opt.               1
      A file JOBMIX will be created
      This is a CASSCF or RASSCF reference function
--

++    Orbital specifications:
      -----------------------

      Symmetry species                           1   2   3   4   5   6   7   8
                                                ag b3u b2u b1g b1u b2g b3g  au
      Frozen orbitals                            1   0   0   0   1   0   0   0
      Inactive orbitals                          2   0   0   0   1   0   0   0
      Active orbitals                            0   1   1   0   0   4   4   0
      Secondary orbitals                        25  13  13   8  20  10  10   5
      Deleted orbitals                           0   0   0   0   0   0   0   0
      Number of basis functions                 28  14  14   8  22  14  14   5
--

++    CASPT2 specifications:
      ----------------------

      Type of calculation                        SS-CASPT2
      Fock operator                              state-specific
      IPEA shift                                 0.25
      Real shift                                 0.00
      Imaginary shift                            0.00
      The input orbitals will be transformed to quasi-canonical
--

--------------------------------------------------------------------------------
 Estimated memory requirements:
  POLY3 :                   295530
  RHS:                      303898
  SIGMA :                   327264
  PRPCTL:                        0
 Available workspace:   2249978362

++ CASPT2 computation for group   1

********************************************************************************
 Multi-State initialization phase begins for group   1
--------------------------------------------------------------------------------
********************************************************************************
 Compute H0 matrices for state    1
--------------------------------------------------------------------------------
--------------------------------------------------------------------------------
 H0 matrices have been computed.

********************************************************************************
  CASPT2 EQUATION SOLUTION
--------------------------------------------------------------------------------

  Total nr of CASPT2 parameters:
   Before reduction:      138010
   After  reduction:       97991

 The contributions to the second order correlation energy in atomic units.
-----------------------------------------------------------------------------------------------------------------------------
  IT.      VJTU        VJTI        ATVX        AIVX        VJAI        BVAT        BJAT        BJAI        TOTAL       RNORM  
-----------------------------------------------------------------------------------------------------------------------------
   1     0.000000   -0.007788   -0.007268   -0.074141   -0.014611   -0.033052   -0.078486   -0.069868   -0.285214    0.007719
   2     0.000000   -0.007837   -0.007302   -0.074343   -0.014658   -0.033054   -0.078476   -0.069882   -0.285552    0.001647
   3     0.000000   -0.007839   -0.007308   -0.074378   -0.014659   -0.033056   -0.078488   -0.069884   -0.285613    0.000341
   4     0.000000   -0.007838   -0.007308   -0.074373   -0.014658   -0.033056   -0.078487   -0.069885   -0.285605    0.000083
   5     0.000000   -0.007838   -0.007307   -0.074372   -0.014658   -0.033056   -0.078487   -0.069885   -0.285603    0.000019
   6     0.000000   -0.007838   -0.007307   -0.074372   -0.014658   -0.033056   -0.078487   -0.069885   -0.285603    0.000004
-----------------------------------------------------------------------------------------------------------------------------

  FINAL CASPT2 RESULT:

      Reference energy:        -109.0690486055
      E2 (Non-variational):      -0.2856032655
      E2 (Variational):          -0.2856032338
      Total energy:            -109.3546518393
      Residual norm:              0.0000009097
      Reference weight:           0.93124

      Contributions to the CASPT2 correlation energy
      Active & Virtual Only:         -0.0403635088
      One Inactive Excited:          -0.1528592784
      Two Inactive Excited:          -0.0923804783


++ Denominators, etc.
--------------------------------------------------------------------------------------------------------------
 Report on small energy denominators, large coefficients, and large energy contributions.
CASE  SYMM ACTIVE-MIX  NON-ACTIVE INDICES          DENOMINATOR     RHS VALUE       COEFFICIENT     CONTRIBUTION
VJTIP    1  Mu1.0007  In5.002 In5.002               1.78657165      0.05588774     -0.03095754     -0.00173015
VJTIP    1  Mu1.0008  In5.002 In5.002               1.81270876     -0.05190518      0.02864923     -0.00148704
AIVX     5  Mu5.0010  In1.002 Se5.011               3.29268945     -0.09546412      0.02871475     -0.00274123
AIVX     5  Mu5.0007  In1.003 Se5.011               2.40562963     -0.06323887      0.02639070     -0.00166892
AIVX     5  Mu5.0009  In1.003 Se5.011               2.44683136     -0.08406687      0.03425275     -0.00287952
AIVX     5  Mu5.0010  In1.003 Se5.011               2.45659132      0.08856658     -0.03575586     -0.00316677
BJAIP    1  Se5.011 In1.003 Se5.011 In1.003         3.44380620      0.08817361     -0.02560354     -0.00225756
--

   (Skipping property calculation,
    use PROP keyword to activate)
--

  Total CASPT2 energies:
::    CASPT2 Root  1     Total energy:   -109.35465184

  A NEW JOBIPH FILE NAMED 'JOBMIX' IS PREPARED.
********************************************************************************
--- Stop Module: caspt2 at Thu May 13 19:26:11 2021 /rc=_RC_ALL_IS_WELL_ ---
*** files: xmldump
    saved to directory /home/gayverjr/final_opencap_examples/openmolcas/symm

.##################.
.# Happy landing! #.
.##################.

    Timing: Wall=59.42 User=262.78 System=13.79
