*******************************************************
*** WorkDir is not cleaned in parallel environment! ***
*******************************************************
   This run of MOLCAS is using the pymolcas driver

                             OPE
                             OPE          NMOL  CASOP  ENMOLC A   SO
                 OPE        NMOLC        AS  OP EN  MO LC     AS  OP
                OPENM       OL CA        SO  PE NM  OL CA     SOP EN
                OP EN      MO   LC       AS  OP ENMOL  CASO   PENMOL
                OP  EN     MO   LC       AS  OP EN     MO     LC ASO
               OP   E  NMOL  C  AS       OP  EN MO     LC     AS  OP
               OP  E   NMO   LC AS        OPEN  MO     LCASOP EN   M
               O  PEN   MO  LCA  SO
            OPE   NMO   L   CAS    OP
        OPENMOL  CASOP     ENMOL   CASOPE
     OPENMOLCA   SOPENMOLCASOPEN   MOLCASOPE
    OPENMOLCAS   OP           EN   MOL    CAS
    OPENMOLCAS       OP  ENM        O     LCA
    OPENMOLCAS    OPEN  MOLCASO     P  E  NMO
    OPENMOLCAS     OP               E  N  MOL
    OPENMOLCA   SO           PENM   O  L  CAS    OPEN    MO    LCAS
    OPENMOLCA   SOP           ENM   O  L  CAS   OP  EN  MOLC  AS   O
    OPENMOLCA   SOPE           NM      O  LCA   S      OP  EN MO
    OPENMOLC                AS         O  PEN   M      OL  CA  SOPE
    OPENMO        LCASOPE  NMOL        C  ASO   P      ENMOLC     AS
    OPE     NMO      LCA  SO     P     E   NM   OL  CA SO  PE N   MO
          OPENMOLCA            SOPE   NMO        LCAS  O    P  ENMO
     OPENMOLCASOPENMOLCASOPENMOLCASOPENMOLCA
        OPENMOLCASOPENMOLCASOPENMOLCASOPE
            OPENMOLCASOPENMOLCASOPENM
               OPENMOLCASOPENMOLCA        version: 21.02
                   OPENMOLCASO
                       OPE                tag: 957-gb1e1fa9

 OpenMolcas is free software; you can redistribute it and/or modify it
 under the terms of the GNU Lesser General Public License version 2.1.
 OpenMolcas is distributed in the hope that it will be useful, but it
 is provided "as is" and without any express or implied warranties.
 For more details see the full text of the license in the file
 LICENSE or in <http://www.gnu.org/licenses/>.

                 Copyright (C) The OpenMolcas Authors
           For the author list and the recommended citation,
                   consult the file CONTRIBUTORS.md

           *************************************************
           * pymolcas version py2.18                       *
           *   build 7a16d2f9e823a0c2ad601740b42a4b0e      *
           *   (after the EMIL interpreter by V. Veryazov) *
           *************************************************

configuration info
------------------
Host name: dirac.bu.edu (Linux)
C Compiler ID: GNU
C flags: -std=gnu99 -fopenmp
Fortran Compiler ID: GNU
Fortran flags: -fno-aggressive-loop-optimizations -cpp -fdefault-integer-8 -fopenmp
Definitions: _MOLCAS_;_I8_;_LINUX_;_DMRG_
Parallel: OFF (GA=OFF)


   ----------------------------------------------------------------------
  |
  |             Project: xms
  |      Submitted from: /scratch/gayverjr/xms.2066215346
  |        Scratch area: /scratch/gayverjr/xms.2066215346
  |     Save outputs to: /home/gayverjr/opencap_examples
  |              Molcas: /home/qcsoftware/OpenMolcas/qcmaquis_build/build
  |
  | Scratch area is NOT empty
  |
  |      MOLCAS_DRIVER = /home/qcsoftware/bin/pymolcas
  | MOLCAS_NEW_WORKDIR = YES
  |      MOLCAS_NPROCS = 16
  |      MOLCAS_SOURCE = /home/qcsoftware/OpenMolcas/Molcas_src
  |   MOLCAS_STRUCTURE = 0
  |
   ----------------------------------------------------------------------

++ ---------   Input file   ---------

&GATEWAY
Expert
Basis set
 N.aug-cc-pvtz
 N1  0.0  0.0  1.037
End of Basis
Basis set
X ..... / inline
   0.00   2
    3    3
               0.0288
               0.0144
               0.0072
      1.00000000             0.00000000             0.00000000
      0.00000000             1.00000000             0.00000000
      0.00000000             0.00000000             1.00000000
     3    3
               0.02455
               0.012275
               0.0061375
     1.00000000             0.00000000             0.00000000
     0.00000000             1.00000000             0.00000000
     0.00000000             0.00000000             1.00000000
     3    3
               0.0755
               0.03775
               0.018875
      1.000000E+00           0.000000E+00           0.000000E+00           0.00000000
      0.000000E+00           1.000000E+00           0.000000E+00           0.00000000
      0.000000E+00           0.000000E+00           1.000000E+00           0.00000000
X1  0.000  0.000  0.000
End of basis
Symmetry
x y z

&SEWARD

&SCF

&MBPT2
PRPT

>>> COPY /home/gayverjr/opencap_examples/$Project.MP2Orb INPORB

&RASSCF
LUMORB
Title = cas 5,13 test
Inactive = 3 0 0 0 2 0 0 0
Ras2= 0 1 1 0 0 1 1 0
NActEl=4,0,0

>>> COPY /home/gayverjr/opencap_examples/$Project.RasOrb INPORB

&RASSCF
LUMORB
Inactive = 3 0 0 0 2 0 0 0
Ras2= 0 1 1 0 0 4 4 0
TDM
Symmetry = 6
Charge = -1
CIROOT= 10 10 1
SPIN=2

&CASPT2
Maxiter = 50
XMULtistate = all

&RASSI
TRD1

>>> COPY /home/gayverjr/opencap_examples/$Project.RasOrb INPORB

&RASSCF
LUMORB
Inactive = 3 0 0 0 2 0 0 0
Ras2= 0 1 1 0 0 4 4 0
CIONLY
NActEl=4,0,0
Spin = 1

&CASPT2

-- ----------------------------------

--- Start Module: gateway at Tue Jun  8 22:05:20 2021 ---

()()()()()()()()()()()()()()()()()()()()()()()()()()()()()()()()()()()()()()()()()()()()()()()()()()

                                              &GATEWAY

                                   only a single process is used
                       available to each process: 20 GB of memory, 16 threads
                                             pid: 18982
()()()()()()()()()()()()()()()()()()()()()()()()()()()()()()()()()()()()()()()()()()()()()()()()()()

 ###############################################################################
 ###############################################################################
 ###                                                                         ###
 ###                                                                         ###
 ###    WARNING:  EXPERT option is ON!                                       ###
 ###                                                                         ###
 ###                                                                         ###
 ###############################################################################
 ###############################################################################
 GuessOrb option turned off!

++    Symmetry information:
      ---------------------

                    --- Group Generators ---
                    Reflection in the yz-plane  
                    Reflection in the xz-plane  
                    Reflection in the xy-plane  

                    Character Table for D2h

                             E   s(yz) s(xz) C2(z) s(xy) C2(y) C2(x)   i  
                    ag       1     1     1     1     1     1     1     1  
                    b3u      1    -1     1    -1     1    -1     1    -1  x
                    b2u      1     1    -1    -1     1     1    -1    -1  y
                    b1g      1    -1    -1     1     1    -1    -1     1  xy, Rz
                    b1u      1     1     1     1    -1    -1    -1    -1  z
                    b2g      1    -1     1    -1    -1     1    -1     1  xz, Ry
                    b3g      1     1    -1    -1    -1    -1     1     1  yz, Rx
                    au       1    -1    -1     1    -1     1     1    -1  I
--


++    Basis set information:
      ----------------------


      Basis set label: N.AUG-CC-PVTZ.........

      Electronic valence basis set:
      ------------------
      Associated Effective Charge   7.000000 au
      Associated Actual Charge      7.000000 au
      Nuclear Model: Point charge

      Shell  nPrim  nBasis  Cartesian Spherical Contaminant
         s      11       5        X                  
         p       6       4        X                  
         d       3       3                 X         
         f       2       2                 X         


      Basis set label: X...............................................................................

      Electronic valence basis set:
      ------------------
      Associated Effective Charge   0.000000 au
      Associated Actual Charge      0.000000 au
      Nuclear Model: Point charge

      Shell  nPrim  nBasis  Cartesian Spherical Contaminant
         s       3       3        X                  
         p       3       3        X                  
         d       3       3                 X         
--


++    Molecular structure info:
      -------------------------

                    ************************************************ 
                    **** Cartesian Coordinates / Bohr, Angstrom **** 
                    ************************************************ 

     Center  Label                x              y              z                     x              y              z
        1      N1               0.000000       0.000000       1.037000              0.000000       0.000000       0.548757
        2      N1               0.000000       0.000000      -1.037000              0.000000       0.000000      -0.548757
        3      X1               0.000000       0.000000       0.000000              0.000000       0.000000       0.000000

                    *************************************** 
                    *    InterNuclear Distances / Bohr    * 
                    *************************************** 

               1 N1            2 N1            3 X1    
    1 N1       0.000000
    2 N1       2.074000        0.000000
    3 X1       1.037000        1.037000        0.000000

                    ******************************************* 
                    *    InterNuclear Distances / Angstrom    * 
                    ******************************************* 

               1 N1            2 N1            3 X1    
    1 N1       0.000000
    2 N1       1.097514        0.000000
    3 X1       0.548757        0.548757        0.000000

                    ************************************** 
                    *    Valence Bond Angles / Degree    * 
                    ************************************** 
                          Atom centers                 Phi
                      2 N1       1 N1       3 X1         0.00
                      1 N1       2 N1       3 X1         0.00
                      1 N1       3 X1       2 N1       180.00
--


            Nuclear Potential Energy             23.62584378 au

--- Stop Module: gateway at Tue Jun  8 22:05:21 2021 /rc=_RC_ALL_IS_WELL_ ---
*** files: xmldump
    saved to directory /home/gayverjr/opencap_examples

--- Start Module: seward at Tue Jun  8 22:05:21 2021 ---

()()()()()()()()()()()()()()()()()()()()()()()()()()()()()()()()()()()()()()()()()()()()()()()()()()

                                              &SEWARD

                                   only a single process is used
                       available to each process: 20 GB of memory, 16 threads
                                             pid: 19003
()()()()()()()()()()()()()()()()()()()()()()()()()()()()()()()()()()()()()()()()()()()()()()()()()()

               SEWARD will generate:
                  Multipole Moment integrals up to order  2
                  Kinetic Energy integrals
                  Nuclear Attraction integrals (point charge)
                  One-Electron Hamiltonian integrals
                  Velocity integrals
                  Orbital angular momentum around ( 0.0000  0.0000  0.0000 )
                  Velocity quadrupole around ( 0.0000  0.0000  0.0000 )
                  Two-Electron Repulsion integrals

                   Integrals are discarded if absolute value <: 0.10E-13
                   Integral cutoff threshold is set to       <: 0.10E-15

                    Unitary symmetry adaptation


            Nuclear Potential Energy             23.62584378 au


      Basis set specifications :
      Symmetry species         ag   b3u  b2u  b1g  b1u  b2g  b3g  au 
      Basis functions           28   14   14    8   22   14   14    5


  Input file to MOLDEN was generated!

--- Stop Module: seward at Tue Jun  8 22:05:24 2021 /rc=_RC_ALL_IS_WELL_ ---
*** files: xms.GssOrb xms.guessorb.h5 xms.guessorb.molden xmldump
    saved to directory /home/gayverjr/opencap_examples
--- Module seward spent 2 seconds ---

*** symbolic link created: INPORB -> xms.GssOrb
--- Start Module: scf at Tue Jun  8 22:05:24 2021 ---

()()()()()()()()()()()()()()()()()()()()()()()()()()()()()()()()()()()()()()()()()()()()()()()()()()

                                                &SCF

                                   only a single process is used
                       available to each process: 20 GB of memory, 16 threads
                                             pid: 19564
()()()()()()()()()()()()()()()()()()()()()()()()()()()()()()()()()()()()()()()()()()()()()()()()()()

++    Input section:
      --------------

      Header of the integral files:
      
       Integrals generated by Gateway/Seward, Tue Jun  8 22:05:21 2021


      Cartesian coordinates in Angstrom:
      -----------------------------------------------------
      No.  Label        X            Y            Z        
      -----------------------------------------------------
       1   N1         0.00000000   0.00000000   0.54875677
       2   X1         0.00000000   0.00000000   0.00000000
       3   N1         0.00000000   0.00000000  -0.54875677
      -----------------------------------------------------
      Nuclear repulsion energy =   23.62584378
--

++    Orbital specifications:
      -----------------------

      Symmetry species               1   2   3   4   5   6   7   8
                                    ag b3u b2u b1g b1u b2g b3g  au
      Frozen orbitals                0   0   0   0   0   0   0   0
      Occupied orbitals              3   1   1   0   2   0   0   0
      Secondary orbitals            25  13  13   8  20  14  14   5
      Deleted orbitals               0   0   0   0   0   0   0   0
      Total number of orbitals      28  14  14   8  22  14  14   5
      Number of basis functions     28  14  14   8  22  14  14   5
--

      Molecular charge                           0.000

++    Optimization specifications:
      ----------------------------

      SCF Algorithm: Conventional
      Minimized density differences are used
      Number of density matrices in core                5
      Maximum number of NDDO SCF iterations           400
      Maximum number of HF SCF iterations             400
      Threshold for SCF energy change            0.10E-08
      Threshold for density matrix               0.10E-03
      Threshold for Fock matrix                  0.15E-03
      Threshold for linear dependence            0.10E-08
      Threshold at which DIIS is turned on       0.15E+00
      Threshold at which QNR/C2DIIS is turned on 0.75E-01
      Threshold for Norm(delta) (QNR/C2DIIS)     0.20E-04
      DIIS extrapolation of the SCF procedure
      All orbitals punched on: SCFORB
--

      Input vectors read from INPORB
      Orbital file label: *Guess orbitals


++ Convergence information
                                   SCF        iterations: Energy and convergence statistics

Iter     Tot. SCF        One-elec.       Two-elec.     Energy      Max Dij or  Max Fij      DNorm      TNorm      AccCon     Time
         Energy          Energy          Energy        Change      Delta Norm                                                in Sec.
   1  -108.706104763  -191.924094051    59.592145508   0.00E+00    0.16E+00*   0.18E+00*    0.50E+01   0.89E+02   None         0.
   2  -108.969601384  -195.064611702    62.469166538  -0.26E+00*   0.51E-01*   0.48E-01*    0.31E+01   0.91E+02   EDIIS        0.
   3  -108.983769941  -194.061014244    61.451400522  -0.14E-01*   0.12E-01*   0.12E-01*    0.78E+00   0.90E+02   EDIIS        0.
   4  -108.984779753  -194.319304509    61.708680976  -0.10E-02*   0.48E-02*   0.26E-02*    0.11E+00   0.90E+02   c2DIIS       0.
   5  -108.984860849  -194.256690415    61.645985786  -0.81E-04*   0.14E-02*   0.73E-03*    0.13E-01   0.90E+02   QNRc2DIIS    0.
   6  -108.984866775  -194.257833117    61.647122562  -0.59E-05*   0.67E-03*   0.24E-03*    0.18E-02   0.90E+02   QNRc2DIIS    0.
   7  -108.984867461  -194.256156203    61.645444962  -0.69E-06*   0.31E-04*   0.23E-04     0.18E-03   0.90E+02   QNRc2DIIS    0.
   8  -108.984867465  -194.256607960    61.645896715  -0.37E-08*   0.58E-05    0.33E-05     0.19E-04   0.90E+02   QNRc2DIIS    0.
   9  -108.984867465  -194.256602505    61.645891260  -0.87E-10    0.35E-06    0.13E-06     0.19E-04   0.90E+02   QNRc2DIIS    0.

       Convergence after  9 Macro Iterations
--

 *****************************************************************************************************************************
 *                                                                                                                           *
 *                                             SCF/KS-DFT Program, Final results                                             *
 *                                                                                                                           *
 *                                                                                                                           *
 *                                                                                                                           *
 *                                                       Final Results                                                       *
 *                                                                                                                           *
 *****************************************************************************************************************************

::    Total SCF energy                               -108.9848674646
      One-electron energy                            -194.2566025046
      Two-electron energy                              61.6458912598
      Nuclear repulsion energy                         23.6258437801
      Kinetic energy (interpolated)                   108.7375378311
      Virial theorem                                    1.0022745561
      Total spin, S(S+1)                                0.0000000000
      Total spin, S                                     0.0000000000
      Max non-diagonal density matrix element           0.0000002222
      Max non-diagonal Fock matrix element              0.0000000443


      All orbitals with orbital energies smaller than  E(LUMO)+0.5 are printed

++    Molecular orbitals:
      -------------------

      Title: SCF orbitals

      Molecular orbitals for symmetry species 1: ag 

          Orbital            1         2         3         4         5         6         7         8         9        10    
          Energy          -15.6853   -1.4725   -0.6345    0.0090    0.0416    0.0508    0.0538    0.1184    0.1403    0.1566
          Occ. No.          2.0000    2.0000    2.0000    0.0000    0.0000    0.0000    0.0000    0.0000    0.0000    0.0000

        1 N1     1s         0.9998    0.0239    0.0065   -0.0008    0.0003   -0.0100    0.0000   -0.0048   -0.0181   -0.0000
        2 N1     1s         0.0019   -0.8988    0.3408   -0.0324    0.0721   -0.0463    0.0000   -0.1533   -0.0224   -0.0000
        3 N1     1s         0.0014    0.0049   -0.0013    0.0002    0.0019   -0.0052   -0.0000    0.0005   -0.0116   -0.0000
        4 N1     1s         0.0018    0.1792    0.2258    0.0008    0.0640   -0.4626    0.0000    0.0010   -1.0583   -0.0000
        5 N1     1s         0.0027   -0.0170    0.1412   -1.4272   -4.1465   -5.4290   -0.0000  -10.8155  -12.7814    0.0000
        6 N1     2pz       -0.0072    0.4854    0.9868   -0.0324    0.0717    0.0028    0.0000   -0.1254   -0.0374    0.0000
        7 N1     2pz        0.0036   -0.0538   -0.0669    0.0028    0.0028    0.0257   -0.0000    0.0156    0.0647    0.0000
        8 N1     2pz        0.0050   -0.1851   -0.1257   -0.0098   -0.0363   -0.2477    0.0000   -0.0944   -0.5478   -0.0000
        9 N1     2pz        0.0103   -0.0942    0.1769   -1.4521   -4.4762   -8.1564   -0.0000  -10.9995  -19.4742   -0.0000
       10 N1     3d0        0.0008   -0.0287   -0.0258   -0.0001   -0.0015   -0.0019    0.0000   -0.0024    0.0014   -0.0000
       11 N1     3d0       -0.0014   -0.0217   -0.0211    0.0013    0.0089    0.0102   -0.0000    0.0088    0.0426    0.0000
       12 N1     3d0       -0.0004    0.0366    0.0106   -0.0321   -0.0660    0.1726   -0.0000   -0.2131    0.3778    0.0000
       13 N1     3d2+       0.0000    0.0000    0.0000    0.0000    0.0000    0.0000   -0.0017    0.0000    0.0000    0.0078
       14 N1     3d2+      -0.0000   -0.0000   -0.0000   -0.0000   -0.0000   -0.0000    0.0168   -0.0000   -0.0000   -0.0239
       15 N1     3d2+       0.0000    0.0000    0.0000    0.0000    0.0000    0.0000   -0.0965    0.0000    0.0000    0.2567
       16 N1     4f0        0.0002    0.0107    0.0082   -0.0007   -0.0016    0.0004    0.0000   -0.0039   -0.0006   -0.0000
       17 N1     4f0        0.0006   -0.0071   -0.0037    0.0026    0.0035   -0.0188    0.0000    0.0153   -0.0436   -0.0000
       18 N1     4f2+      -0.0000   -0.0000    0.0000    0.0000   -0.0000   -0.0000    0.0002   -0.0000    0.0000   -0.0008
       19 N1     4f2+      -0.0000   -0.0000   -0.0000    0.0000    0.0000   -0.0000    0.0004    0.0000   -0.0000   -0.0026
       20 X1     1s        -0.0037    0.0271   -0.1254    2.7106    8.3586    6.8682    0.0000   19.1475   14.9966   -0.0000
       21 X1     1s        -0.0002    0.0030    0.0273   -2.9994   -7.9085   -1.6572   -0.0000  -10.3282   -2.9767    0.0000
       22 X1     1s         0.0002   -0.0015   -0.0054    2.6097    3.4882    0.2149    0.0000    2.9819    0.4175   -0.0000
       23 X1     3d0       -0.0023   -0.0038   -0.0516    0.2032    0.6036    0.6032    0.0000    1.4952    1.5365    0.0000
       24 X1     3d0       -0.0025    0.0327   -0.0344    0.4982    1.6296    3.6656    0.0000    3.7257    8.4889   -0.0000
       25 X1     3d0        0.0003   -0.0051    0.0013   -0.1153   -0.3901   -1.9902   -0.0000   -0.4797   -2.0241    0.0000
       26 X1     3d2+      -0.0000   -0.0000   -0.0000   -0.0000   -0.0000   -0.0000    0.4296   -0.0000   -0.0000   -1.0855
       27 X1     3d2+       0.0000    0.0000    0.0000    0.0000    0.0000    0.0000   -0.9758    0.0000    0.0000    2.6606
       28 X1     3d2+      -0.0000   -0.0000   -0.0000   -0.0000   -0.0000   -0.0000    1.5672   -0.0000   -0.0000   -1.4090

          Orbital           11        12        13    
          Energy            0.2787    0.3045    0.3536
          Occ. No.          0.0000    0.0000    0.0000

        1 N1     1s        -0.0136    0.0334    0.0000
        2 N1     1s         0.0702    0.3564    0.0000
        3 N1     1s        -0.0162    0.0289    0.0000
        4 N1     1s        -1.3151    2.3131    0.0000
        5 N1     1s       -28.8203   -0.2786   -0.0000
        6 N1     2pz        0.1839    0.0430    0.0000
        7 N1     2pz        0.0992   -0.0670   -0.0000
        8 N1     2pz       -0.9362    0.8098    0.0000
        9 N1     2pz      -40.8411    8.7271   -0.0000
       10 N1     3d0       -0.0157    0.0105   -0.0000
       11 N1     3d0        0.0729    0.0184   -0.0000
       12 N1     3d0        0.0643   -1.0248   -0.0000
       13 N1     3d2+       0.0000   -0.0000   -0.0004
       14 N1     3d2+      -0.0000    0.0000    0.1186
       15 N1     3d2+       0.0000   -0.0000   -0.5299
       16 N1     4f0       -0.0050   -0.0111    0.0000
       17 N1     4f0       -0.0387    0.0850    0.0000
       18 N1     4f2+      -0.0000   -0.0000   -0.0001
       19 N1     4f2+       0.0000    0.0000   -0.0036
       20 X1     1s        35.2257    2.8524    0.0000
       21 X1     1s        -9.1684   -3.8173   -0.0000
       22 X1     1s         1.8881    1.1466    0.0000
       23 X1     3d0        5.0631    0.8181    0.0000
       24 X1     3d0       12.4964   -4.0978    0.0000
       25 X1     3d0       -1.4599    0.8873   -0.0000
       26 X1     3d2+      -0.0000    0.0000    2.9661
       27 X1     3d2+       0.0000   -0.0000   -2.7371
       28 X1     3d2+      -0.0000    0.0000    0.9872

      Molecular orbitals for symmetry species 2: b3u

          Orbital            1         2         3         4         5    
          Energy           -0.6145    0.0118    0.0411    0.1058    0.2623
          Occ. No.          2.0000    0.0000    0.0000    0.0000    0.0000

        1 N1     2px        0.8877   -0.0128   -0.0535   -0.1049    0.2963
        2 N1     2px       -0.0106   -0.0048    0.0127   -0.0276   -0.0879
        3 N1     2px       -0.0526    0.0181   -0.0505    0.1024    0.4247
        4 N1     2px       -0.0035   -0.1409    0.3373   -1.0222   -2.8889
        5 N1     3d1+      -0.0284    0.0006    0.0019    0.0044   -0.0114
        6 N1     3d1+      -0.0518    0.0011    0.0046    0.0093   -0.0227
        7 N1     3d1+      -0.0102    0.0029   -0.0060    0.0172    0.0153
        8 N1     4f1+       0.0115    0.0000   -0.0013   -0.0004    0.0080
        9 N1     4f1+       0.0013   -0.0007    0.0016   -0.0042   -0.0056
       10 N1     4f3+      -0.0000   -0.0000    0.0000   -0.0000    0.0000
       11 N1     4f3+       0.0000    0.0000   -0.0000    0.0000   -0.0000
       12 X1     2px        0.0237    0.6302   -1.7010    4.6366    5.2563
       13 X1     2px       -0.0161   -1.3465    3.6350   -4.2882   -3.2098
       14 X1     2px        0.0053    1.7965   -1.9506    1.5053    0.9613

      Molecular orbitals for symmetry species 3: b2u

          Orbital            1         2         3         4         5    
          Energy           -0.6145    0.0118    0.0411    0.1058    0.2623
          Occ. No.          2.0000    0.0000    0.0000    0.0000    0.0000

        1 N1     2py        0.8877   -0.0128   -0.0535   -0.1049    0.2963
        2 N1     2py       -0.0106   -0.0048    0.0127   -0.0276   -0.0879
        3 N1     2py       -0.0526    0.0181   -0.0505    0.1024    0.4247
        4 N1     2py       -0.0035   -0.1409    0.3373   -1.0222   -2.8889
        5 N1     3d1-      -0.0284    0.0006    0.0019    0.0044   -0.0114
        6 N1     3d1-      -0.0518    0.0011    0.0046    0.0093   -0.0227
        7 N1     3d1-      -0.0102    0.0029   -0.0060    0.0172    0.0153
        8 N1     4f3-       0.0000    0.0000   -0.0000    0.0000   -0.0000
        9 N1     4f3-      -0.0000   -0.0000    0.0000   -0.0000    0.0000
       10 N1     4f1-       0.0115    0.0000   -0.0013   -0.0004    0.0080
       11 N1     4f1-       0.0013   -0.0007    0.0016   -0.0042   -0.0056
       12 X1     2py        0.0237    0.6302   -1.7010    4.6366    5.2563
       13 X1     2py       -0.0161   -1.3465    3.6350   -4.2882   -3.2098
       14 X1     2py        0.0053    1.7965   -1.9506    1.5053    0.9613

      Molecular orbitals for symmetry species 4: b1g

          Orbital            1         2         3    
          Energy            0.0538    0.1566    0.3536
          Occ. No.          0.0000    0.0000    0.0000

        1 N1     3d2-      -0.0017    0.0078   -0.0004
        2 N1     3d2-       0.0168   -0.0239    0.1186
        3 N1     3d2-      -0.0965    0.2567   -0.5299
        4 N1     4f2-       0.0002   -0.0008   -0.0001
        5 N1     4f2-       0.0004   -0.0026   -0.0036
        6 X1     3d2-       0.4296   -1.0855    2.9661
        7 X1     3d2-      -0.9758    2.6606   -2.7371
        8 X1     3d2-       1.5672   -1.4090    0.9872

      Molecular orbitals for symmetry species 5: b1u

          Orbital            1         2         3         4         5         6         7    
          Energy          -15.6817   -0.7795    0.0119    0.0415    0.1044    0.2027    0.3305
          Occ. No.          2.0000    2.0000    0.0000    0.0000    0.0000    0.0000    0.0000

        1 N1     1s         0.9994    0.0062   -0.0008   -0.0004   -0.0045    0.0064    0.0098
        2 N1     1s        -0.0015    0.9299   -0.0163    0.0450   -0.1168    0.1600   -0.2152
        3 N1     1s         0.0008    0.0002    0.0002    0.0016   -0.0013   -0.0151   -0.0456
        4 N1     1s         0.0310    0.3152    0.1198    0.2979    1.4455   10.0373   15.2159
        5 N1     1s         0.0113    0.0758    1.5470    3.8012   13.2440   57.8396   60.0542
        6 N1     2pz       -0.0044    0.4555   -0.0049    0.0199   -0.0342    0.0761   -0.0564
        7 N1     2pz        0.0008   -0.0315   -0.0033   -0.0068   -0.0472   -0.3350   -0.5307
        8 N1     2pz       -0.0123   -0.1640   -0.0640   -0.1336   -0.8234   -5.7218   -9.3527
        9 N1     2pz       -0.0026   -0.0101   -0.6924   -1.6893   -5.6581  -19.5735  -15.0036
       10 N1     3d0        0.0010   -0.0044    0.0003   -0.0004    0.0023   -0.0007    0.0047
       11 N1     3d0        0.0013   -0.0016    0.0010   -0.0031    0.0287    0.2297    0.4539
       12 N1     3d0        0.0023    0.0198    0.0283    0.0647    0.2599    1.3070    1.7529
       13 N1     3d2+       0.0000   -0.0000   -0.0000   -0.0000   -0.0000   -0.0000   -0.0000
       14 N1     3d2+      -0.0000   -0.0000   -0.0000    0.0000    0.0000    0.0000    0.0000
       15 N1     3d2+       0.0000    0.0000    0.0000    0.0000    0.0000    0.0000    0.0000
       16 N1     4f0       -0.0007   -0.0015    0.0003    0.0009   -0.0000   -0.0132   -0.0325
       17 N1     4f0       -0.0000    0.0003   -0.0031   -0.0066   -0.0218   -0.0653   -0.0568
       18 N1     4f2+       0.0000   -0.0000    0.0000   -0.0000    0.0000    0.0000    0.0000
       19 N1     4f2+       0.0000    0.0000   -0.0000   -0.0000   -0.0000   -0.0000   -0.0000
       20 X1     2pz        0.0005    0.0063    0.9763    2.5932    7.0861    9.9344    2.1554
       21 X1     2pz       -0.0001   -0.0040   -1.5674   -4.0951   -5.1402   -3.8983    0.3293
       22 X1     2pz        0.0000    0.0013    1.8785    2.0548    1.6618    0.9371   -0.2424

      Molecular orbitals for symmetry species 6: b2g

          Orbital            1         2         3         4    
          Energy            0.0493    0.1189    0.1730    0.3156
          Occ. No.          0.0000    0.0000    0.0000    0.0000

        1 N1     2px        0.0549    0.4731   -0.6572   -0.4632
        2 N1     2px        0.0125   -0.0166   -0.0237    0.0186
        3 N1     2px        0.5238   -0.5585   -1.3004    1.7392
        4 N1     2px       12.1917  -18.6690  -30.0803   58.2658
        5 N1     3d1+       0.0033    0.0055   -0.0159    0.0040
        6 N1     3d1+      -0.0422    0.0969    0.0624   -0.2192
        7 N1     3d1+      -0.1929    0.2675    0.3289   -0.3772
        8 N1     4f1+       0.0007   -0.0051    0.0014    0.0134
        9 N1     4f1+       0.0289   -0.0467   -0.0505    0.1023
       10 N1     4f3+      -0.0000    0.0000    0.0000   -0.0000
       11 N1     4f3+       0.0000   -0.0000   -0.0000    0.0000
       12 X1     3d1+      -0.8184    1.3687    2.0532   -5.5915
       13 X1     3d1+      -4.2552    6.6295    9.4746  -14.6439
       14 X1     3d1+       2.0912   -1.6772   -1.7747    1.8044

      Molecular orbitals for symmetry species 7: b3g

          Orbital            1         2         3         4    
          Energy            0.0493    0.1189    0.1730    0.3156
          Occ. No.          0.0000    0.0000    0.0000    0.0000

        1 N1     2py        0.0549    0.4731   -0.6572   -0.4632
        2 N1     2py        0.0125   -0.0166   -0.0237    0.0186
        3 N1     2py        0.5238   -0.5585   -1.3004    1.7392
        4 N1     2py       12.1917  -18.6690  -30.0803   58.2658
        5 N1     3d1-       0.0033    0.0055   -0.0159    0.0040
        6 N1     3d1-      -0.0422    0.0969    0.0624   -0.2192
        7 N1     3d1-      -0.1929    0.2675    0.3289   -0.3772
        8 N1     4f3-       0.0000   -0.0000   -0.0000    0.0000
        9 N1     4f3-      -0.0000    0.0000    0.0000   -0.0000
       10 N1     4f1-       0.0007   -0.0051    0.0014    0.0134
       11 N1     4f1-       0.0289   -0.0467   -0.0505    0.1023
       12 X1     3d1-      -0.8184    1.3687    2.0532   -5.5915
       13 X1     3d1-      -4.2552    6.6295    9.4746  -14.6439
       14 X1     3d1-       2.0912   -1.6772   -1.7747    1.8044
--


++    Molecular charges:
      ------------------

      Mulliken charges per centre and basis function type
      ---------------------------------------------------

                N1      X1    
      1s       4.0417 -0.1005
      2px      0.9590  0.0069
      2pz      1.0231  0.0023
      2py      0.9590  0.0069
      3d2+     0.0000 -0.0000
      3d1+     0.0346  0.0000
      3d0      0.0011 -0.0371
      3d1-     0.0346  0.0000
      3d2-     0.0000  0.0000
      4f3+     0.0000  0.0000
      4f2+     0.0000  0.0000
      4f1+     0.0030  0.0000
      4f0      0.0018  0.0000
      4f1-     0.0030  0.0000
      4f2-     0.0000  0.0000
      4f3-     0.0000  0.0000
      Total    7.0607 -0.1215

      N-E     -0.0607  0.1215

      Total electronic charge=   14.000000

      Total            charge=   -0.000000
--


++    Molecular properties:
      ---------------------

      Charge (e):
                      =   -0.0000
      Dipole Moment (Debye):
      Origin of the operator (Ang)=    0.0000    0.0000    0.0000
                   X=  0.0000E+00               Y=  0.0000E+00               Z=  0.0000E+00           Total=  0.0000E+00
      Quadrupole Moment (Debye*Ang):
      Origin of the operator (Ang)=    0.0000    0.0000    0.0000
                  XX= -1.0396E+01              XY=  0.0000E+00              XZ=  0.0000E+00              YY= -1.0396E+01
                  YZ=  0.0000E+00              ZZ= -1.1646E+01
      In traceless form (Debye*Ang)
                  XX=  6.2522E-01              XY=  0.0000E+00              XZ=  0.0000E+00              YY=  6.2522E-01
                  YZ=  0.0000E+00              ZZ= -1.2504E+00
--


  Input file to MOLDEN was generated!

 ###############################################################################
 ###############################################################################
 ###                                                                         ###
 ###                                                                         ###
 ###    WARNING: RunFile label nBas                                          ###
 ###    was used       71 times                                              ###
 ###                                                                         ###
 ###                                                                         ###
 ###############################################################################
 ###############################################################################
--- Stop Module: scf at Tue Jun  8 22:05:25 2021 /rc=_RC_ALL_IS_WELL_ ---
*** files: xms.scf.molden xms.ScfOrb xms.scf.h5 xmldump
    saved to directory /home/gayverjr/opencap_examples

*** symbolic link created: INPORB -> xms.ScfOrb
--- Start Module: mbpt2 at Tue Jun  8 22:05:25 2021 ---

()()()()()()()()()()()()()()()()()()()()()()()()()()()()()()()()()()()()()()()()()()()()()()()()()()

                                               &MBPT2

                                   only a single process is used
                       available to each process: 20 GB of memory, 16 threads
                                             pid: 19603
()()()()()()()()()()()()()()()()()()()()()()()()()()()()()()()()()()()()()()()()()()()()()()()()()()


      Cartesian coordinates in Angstrom:
      -----------------------------------------------------
      No.  Label        X            Y            Z        
      -----------------------------------------------------
       1   N1         0.00000000   0.00000000   0.54875677
       2   X1         0.00000000   0.00000000   0.00000000
       3   N1         0.00000000   0.00000000  -0.54875677
      -----------------------------------------------------
      Nuclear repulsion energy =   23.62584378

      Contents of RUNFILE file:
      -------------------------

      Symmetry species                           1   2   3   4   5   6   7   8
                                                ag b3u b2u b1g b1u b2g b3g  au
      Number of basis functions                 28  14  14   8  22  14  14   5
      Frozen occupied orbitals                   1   0   0   0   1   0   0   0
      Active occupied orbitals                   2   1   1   0   1   0   0   0
      Active external orbitals                  25  13  13   8  20  14  14   5
      Deleted external orbitals                  0   0   0   0   0   0   0   0


      Reference numbers of frozen occupied orbitals according to the original input sequence
      symmetry species 1                        1
      symmetry species 5                        1


      Energies of the active occupied orbitals

      symmetry species 1                    -1.472462     -0.634529

      symmetry species 2                    -0.614457

      symmetry species 3                    -0.614457

      symmetry species 5                    -0.779547


      Energies of the active external orbitals

      symmetry species 1                     0.009035      0.041599      0.050793      0.053780      0.118375
                                             0.140254      0.156585      0.278665      0.304538      0.353601
                                             0.531080      0.650173      0.715036      1.156748      1.307621
                                             1.547956      1.777308      1.826130      3.107139      4.048044
                                             4.447250      4.736792      5.225954      6.807477     11.488336

      symmetry species 2                     0.011836      0.041095      0.105794      0.262333      0.583394
                                             0.847132      1.371952      1.476976      2.160879      3.388878
                                             4.528828      4.660821      5.595130

      symmetry species 3                     0.011836      0.041095      0.105794      0.262333      0.583394
                                             0.847132      1.371952      1.476976      2.160879      3.388878
                                             4.528828      4.660821      5.595130

      symmetry species 4                     0.053780      0.156585      0.353601      0.715036      1.547956
                                             1.777308      4.447250      5.225954

      symmetry species 5                     0.011943      0.041471      0.104449      0.202713      0.330536
                                             0.580456      0.582189      0.788875      1.094597      1.570930
                                             1.666779      2.002336      2.317189      2.770773      4.562314
                                             5.156780      5.201785      5.746753      6.772685     19.320734

      symmetry species 6                     0.049259      0.118946      0.172975      0.315560      0.542477
                                             0.719440      1.226682      1.720295      1.820737      2.600376
                                             4.364108      5.043236      5.531949      6.899501

      symmetry species 7                     0.049259      0.118946      0.172975      0.315560      0.542477
                                             0.719440      1.226682      1.720295      1.820737      2.600376
                                             4.364108      5.043236      5.531949      6.899501

      symmetry species 8                     0.582189      1.570930      2.317189      5.156780      5.746753


      ********************************************************************************************************
      *                                               Results                                                *
      ********************************************************************************************************

 Conventional algorithm used...

  Input file to MOLDEN was generated!


       SCF energy                           =     -108.9848674646 a.u.
       Second-order correlation energy      =       -0.3796873421 a.u.

       Total energy                         =     -109.3645548068 a.u.
       Reference weight ( Cref**2 )         =        0.89260

::    Total MBPT2 energy                             -109.3645548068


++    Molecular properties:
      ---------------------

      Charge (e):
                      =   -0.0000
      Dipole Moment (Debye):
      Origin of the operator (Ang)=    0.0000    0.0000    0.0000
                   X=  0.0000E+00               Y=  0.0000E+00               Z=  0.0000E+00           Total=  0.0000E+00
      Quadrupole Moment (Debye*Ang):
      Origin of the operator (Ang)=    0.0000    0.0000    0.0000
                  XX= -1.0291E+01              XY=  0.0000E+00              XZ=  0.0000E+00              YY= -1.0291E+01
                  YZ=  0.0000E+00              ZZ= -1.1895E+01
      In traceless form (Debye*Ang)
                  XX=  8.0189E-01              XY=  0.0000E+00              XZ=  0.0000E+00              YY=  8.0189E-01
                  YZ=  0.0000E+00              ZZ= -1.6038E+00
--


       Zeroth-order energy (E0)             =      -47.3389762048 a.u.

       Shanks-type energy S1(E)             =     -109.3669078573 a.u.




       Data processing and timing information:

       Section                                              time(sec)
                                                          CPU  Elapsed

      Input data processing                              0.06      0.07
      Transformation of integrals                        0.59      0.97
      MBPT2 calculations (BJAI)                          1.15      1.57
      Total MBPT2 calculations                           1.80      2.61


 ###############################################################################
 ###############################################################################
 ###                                                                         ###
 ###                                                                         ###
 ###    WARNING: RunFile label nBas                                          ###
 ###    was used       53 times                                              ###
 ###                                                                         ###
 ###                                                                         ###
 ###############################################################################
 ###############################################################################
--- Stop Module: mbpt2 at Tue Jun  8 22:05:28 2021 /rc=_RC_ALL_IS_WELL_ ---
*** files: xms.mp2.molden xms.MP2Orb xmldump
    saved to directory /home/gayverjr/opencap_examples
--- Module mbpt2 spent 2 seconds ---

>>> COPY /home/gayverjr/opencap_examples/xms.MP2Orb INPORB

--- Start Module: rasscf at Tue Jun  8 22:05:28 2021 ---

()()()()()()()()()()()()()()()()()()()()()()()()()()()()()()()()()()()()()()()()()()()()()()()()()()

                                              &RASSCF

                                   only a single process is used
                       available to each process: 20 GB of memory, 16 threads
                                             pid: 19627
()()()()()()()()()()()()()()()()()()()()()()()()()()()()()()()()()()()()()()()()()()()()()()()()()()


      Header of the ONEINT file:
      --------------------------
      
      Integrals generated by Gateway/Seward, Tue Jun  8 22:05:21 2021


      OrdInt status: non-squared


      Cartesian coordinates in Angstrom:
      -----------------------------------------------------
      No.  Label        X            Y            Z        
      -----------------------------------------------------
       1   N1         0.00000000   0.00000000   0.54875677
       2   X1         0.00000000   0.00000000   0.00000000
       3   N1         0.00000000   0.00000000  -0.54875677
      -----------------------------------------------------
      Nuclear repulsion energy =   23.62584378

++    Wave function specifications:
      -----------------------------

      Number of closed shell electrons          10
      Number of electrons in active shells       4
      Max number of holes in RAS1 space          0
      Max nr of electrons in RAS3 space          0
      Number of inactive orbitals                5
      Number of active orbitals                  4
      Number of secondary orbitals             110
      Spin quantum number                      0.0
      State symmetry                             1
--

++    Orbital specifications:
      -----------------------

      Symmetry species                           1   2   3   4   5   6   7   8
                                                ag b3u b2u b1g b1u b2g b3g  au
      Frozen orbitals                            0   0   0   0   0   0   0   0
      Inactive orbitals                          3   0   0   0   2   0   0   0
      Active orbitals                            0   1   1   0   0   1   1   0
      RAS1 orbitals                              0   0   0   0   0   0   0   0
      RAS2 orbitals                              0   1   1   0   0   1   1   0
      RAS3 orbitals                              0   0   0   0   0   0   0   0
      Secondary orbitals                        25  13  13   8  20  13  13   5
      Deleted orbitals                           0   0   0   0   0   0   0   0
      Number of basis functions                 28  14  14   8  22  14  14   5
--

++    CI expansion specifications:
      ----------------------------

      Number of CSFs                             8
      Number of determinants                     9
      Number of root(s) required                 1
      Root chosen for geometry opt.              1
      CI root used                               1
         
      highest root included in the CI            1
      max. size of the explicit Hamiltonian      8
--

++    Optimization specifications:
      ----------------------------

      RASSCF algorithm: Conventional
      Maximum number of macro iterations       200
      Maximum number of SX iterations          100
      Threshold for RASSCF energy            0.100E-07
      Threshold for max MO rotation          0.100E+00
      Threshold for max BLB element          0.100E-03
      Level shift parameter                  0.500E+00
      Make Quasi-Newton update
--

      The MO-coefficients are taken from the file:
      INPORB                                                                                                                          
      Title:  Natural MP2 orbitals                                                         

      Total molecular charge    0.00

      ************************************************************************************************************************
      *                                                                                                                      *
      *                                            Wave function control section                                             *
      *                                                                                                                      *
      ************************************************************************************************************************


                                         RASSCF iterations: Energy and convergence statistics
                                         ----------------------------------------------------

      Iter CI   SX   CI       RASSCF       Energy    max ROT     max BLB   max BLB  Level Ln srch  Step   QN   Walltime
          iter iter root      energy       change     param      element    value   shift minimum  type update hh:mm:ss
 Nr of preliminary CI iterations:   1
        1   1   19    1  -109.07345147    0.00E+00   0.31E-01    3   7 1  0.46E-01*  0.00   0.00    SX    NO    0:00:00
        2   1   18    1  -109.07637210   -0.29E-02*  0.73E-02    2   3 5  0.12E-01*  0.00   0.00    SX    NO    0:00:00
        3   1   17    1  -109.07654422   -0.17E-03* -0.17E-02    2   3 5  0.35E-02*  0.00   0.00    SX    NO    0:00:00
        4   1   15    1  -109.07656036   -0.16E-04*  0.52E-03    3   4 1 -0.10E-02*  0.00   0.00    SX    NO    0:00:00
        5   1   13    1  -109.07656205   -0.17E-05* -0.25E-03    2   3 5  0.33E-03*  0.00   1.35    QN   YES    0:00:00
        6   1    9    1  -109.07656226   -0.21E-06*  0.16E-04    3   5 1  0.56E-04   0.00   0.93    QN   YES    0:00:00
        7   1    5    1  -109.07656226   -0.30E-08  -0.31E-05    1   2 3 -0.63E-05   0.00   0.99    QN   YES    0:00:00
      Convergence after  7 iterations
        8   1    5    1  -109.07656226   -0.49E-10  -0.31E-05    1   2 3 -0.13E-05   0.00   0.99    QN   YES    0:00:00

      ************************************************************************************************************************
                                                      Wave function printout:
                       occupation of active orbitals, and spin coupling of open shells (u,d: Spin up or down)
      ************************************************************************************************************************

      Note: transformation to natural orbitals
      has been made, which may change the order of the CSFs.

      printout of CI-coefficients larger than  0.05 for root  1
      energy=    -109.076562
      conf/sym  2 3 6 7     Coeff  Weight
             1  2 2 0 0   0.96834 0.93768
             3  2 0 0 2  -0.13477 0.01816
             4  0 2 2 0  -0.13477 0.01816
             6  u d u d   0.11614 0.01349
             7  u u d d  -0.09990 0.00998

      Natural orbitals and occupation numbers for root  1
      sym 2:   1.935859
      sym 3:   1.935859
      sym 6:   0.064141
      sym 7:   0.064141

      ************************************************************************************************************************
      *                                                                                                                      *
      *                                                    Final results                                                     *
      *                                                                                                                      *
      ************************************************************************************************************************


++    Wave function specifications:
      -----------------------------

      Number of closed shell electrons          10
      Number of electrons in active shells       4
      Max number of holes in RAS1 space          0
      Max nr of electrons in RAS3 space          0
      Number of inactive orbitals                5
      Number of active orbitals                  4
      Number of secondary orbitals             110
      Spin quantum number                      0.0
      State symmetry                             1
--

++    Orbital specifications:
      -----------------------

      Symmetry species                           1   2   3   4   5   6   7   8
                                                ag b3u b2u b1g b1u b2g b3g  au
      Frozen orbitals                            0   0   0   0   0   0   0   0
      Inactive orbitals                          3   0   0   0   2   0   0   0
      Active orbitals                            0   1   1   0   0   1   1   0
      RAS1 orbitals                              0   0   0   0   0   0   0   0
      RAS2 orbitals                              0   1   1   0   0   1   1   0
      RAS3 orbitals                              0   0   0   0   0   0   0   0
      Secondary orbitals                        25  13  13   8  20  13  13   5
      Deleted orbitals                           0   0   0   0   0   0   0   0
      Number of basis functions                 28  14  14   8  22  14  14   5
--

++    CI expansion specifications:
      ----------------------------

      Number of CSFs                             8
      Number of determinants                     9
      Number of root(s) required                 1
      CI root used                               1
      highest root included in the CI            1
      Root passed to geometry opt.               1
--

++    Final optimization conditions:
      ------------------------------

      Average CI energy                            -109.07656226
      RASSCF energy for state  1                   -109.07656226
      Super-CI energy                                -0.00000000
      RASSCF energy change                           -0.00000000
      Max change in MO coefficients              -0.143E-04
      Max non-diagonal density matrix element    -0.312E-05
      Maximum BLB matrix element                 -0.130E-05
      (orbital pair   1,   2 in symmetry   3)
      Norm of electronic gradient            0.292E-05
--


      Final state energy(ies):
      ------------------------

::    RASSCF root number  1 Total energy:   -109.07656226

++    Molecular orbitals:
      -------------------

      Pseudonatural active orbitals and approximate occupation numbers




      Molecular orbitals for symmetry species 1: ag 


      Orbital                 1         2         3         4         5         6         7         8         9
      Energy           -15.6544   -1.4596   -0.6196    0.0091    0.0417    0.0509    0.0537    0.1188    0.1404
      Occ. No.           2.0000    2.0000    2.0000    0.0000    0.0000    0.0000    0.0000    0.0000    0.0000

     1 N1     1s         0.9996   -0.0240    0.0062   -0.0008   -0.0003    0.0101    0.0000    0.0045   -0.0181
     2 N1     1s         0.0018    0.8970    0.3346   -0.0320   -0.0715    0.0452   -0.0000    0.1514   -0.0246
     3 N1     1s         0.0018   -0.0066   -0.0019    0.0002   -0.0017    0.0051    0.0000   -0.0011   -0.0118
     4 N1     1s         0.0019   -0.1776    0.2330   -0.0003   -0.0702    0.4616   -0.0000   -0.0080   -1.0594
     5 N1     1s         0.0028    0.0163    0.1493   -1.4379    4.1012    5.4846   -0.0000   10.7523  -12.9473
     6 N1     2pz       -0.0074   -0.4837    0.9776   -0.0327   -0.0723   -0.0037   -0.0000    0.1264   -0.0382
     7 N1     2pz        0.0037    0.0523   -0.0638    0.0028   -0.0025   -0.0258    0.0000   -0.0152    0.0647
     8 N1     2pz        0.0051    0.1832   -0.1162   -0.0105    0.0331    0.2480    0.0000    0.0916   -0.5503
     9 N1     2pz        0.0106    0.0931    0.1849   -1.4668    4.4025    8.2137    0.0000   10.8803  -19.6669
    10 N1     3d0        0.0008    0.0287   -0.0261   -0.0000    0.0016    0.0019    0.0000    0.0023    0.0013
    11 N1     3d0       -0.0014    0.0222   -0.0225    0.0014   -0.0085   -0.0104    0.0000   -0.0091    0.0426
    12 N1     3d0       -0.0004   -0.0355    0.0090   -0.0315    0.0688   -0.1723   -0.0000    0.2157    0.3735
    13 N1     3d2+       0.0000    0.0000   -0.0000   -0.0000   -0.0000    0.0000   -0.0017   -0.0000   -0.0000
    14 N1     3d2+      -0.0000   -0.0000   -0.0000    0.0000   -0.0000   -0.0000    0.0167   -0.0000    0.0000
    15 N1     3d2+       0.0000    0.0000    0.0000   -0.0000    0.0000    0.0000   -0.0965    0.0000   -0.0000
    16 N1     4f0        0.0002   -0.0108    0.0082   -0.0007    0.0015   -0.0004   -0.0000    0.0040   -0.0006
    17 N1     4f0        0.0007    0.0067   -0.0037    0.0026   -0.0038    0.0187    0.0000   -0.0157   -0.0435
    18 N1     4f2+       0.0000   -0.0000   -0.0000   -0.0000   -0.0000   -0.0000    0.0002   -0.0000    0.0000
    19 N1     4f2+      -0.0000    0.0000   -0.0000   -0.0000    0.0000    0.0000    0.0004    0.0000   -0.0000
    20 X1     1s        -0.0038   -0.0260   -0.1313    2.7252   -8.3138   -6.9852   -0.0000  -19.0732   15.2519
    21 X1     1s        -0.0002   -0.0034    0.0287   -3.0090    7.9075    1.7691    0.0000   10.3081   -3.0852
    22 X1     1s         0.0002    0.0016   -0.0057    2.6140   -3.4883   -0.2607   -0.0000   -2.9764    0.4454
    23 X1     3d0       -0.0023    0.0037   -0.0519    0.2040   -0.6001   -0.6096    0.0000   -1.4863    1.5639
    24 X1     3d0       -0.0026   -0.0323   -0.0367    0.5042   -1.5965   -3.6889   -0.0000   -3.6632    8.5497
    25 X1     3d0        0.0003    0.0050    0.0015   -0.1197    0.3656    1.9963    0.0000    0.4603   -2.0302
    26 X1     3d2+      -0.0000   -0.0000   -0.0000    0.0000   -0.0000   -0.0000    0.4293   -0.0000    0.0000
    27 X1     3d2+       0.0000    0.0000   -0.0000   -0.0000    0.0000    0.0000   -0.9741    0.0000   -0.0000
    28 X1     3d2+      -0.0000   -0.0000    0.0000    0.0000   -0.0000   -0.0000    1.5663   -0.0000    0.0000



      Molecular orbitals for symmetry species 2: b3u


      Orbital                 1         2         3         4
      Energy             0.0000    0.0118    0.0410    0.1056
      Occ. No.           1.9359    0.0000    0.0000    0.0000

     1 N1     2px        0.9164   -0.0120    0.0508   -0.0991
     2 N1     2px       -0.0155   -0.0049   -0.0125   -0.0280
     3 N1     2px       -0.0737    0.0179    0.0513    0.1002
     4 N1     2px       -0.0079   -0.1407   -0.3369   -1.0203
     5 N1     3d1+      -0.0270    0.0005   -0.0018    0.0042
     6 N1     3d1+      -0.0463    0.0010   -0.0045    0.0090
     7 N1     3d1+      -0.0070    0.0027    0.0067    0.0155
     8 N1     4f1+       0.0104    0.0000    0.0013   -0.0003
     9 N1     4f1+       0.0000   -0.0007   -0.0017   -0.0039
    10 N1     4f3+      -0.0000   -0.0000   -0.0000   -0.0000
    11 N1     4f3+       0.0000    0.0000    0.0000    0.0000
    12 X1     2px        0.0262    0.6296    1.6969    4.6353
    13 X1     2px       -0.0171   -1.3440   -3.6316   -4.2904
    14 X1     2px        0.0055    1.7950    1.9508    1.5066



      Molecular orbitals for symmetry species 3: b2u


      Orbital                 1         2         3         4
      Energy             0.0000    0.0118    0.0410    0.1056
      Occ. No.           1.9359    0.0000    0.0000    0.0000

     1 N1     2py        0.9164   -0.0120    0.0508   -0.0991
     2 N1     2py       -0.0155   -0.0049   -0.0125   -0.0280
     3 N1     2py       -0.0737    0.0179    0.0513    0.1002
     4 N1     2py       -0.0079   -0.1407   -0.3369   -1.0203
     5 N1     3d1-      -0.0270    0.0005   -0.0018    0.0042
     6 N1     3d1-      -0.0463    0.0010   -0.0045    0.0090
     7 N1     3d1-      -0.0070    0.0027    0.0067    0.0155
     8 N1     4f3-       0.0000    0.0000    0.0000    0.0000
     9 N1     4f3-      -0.0000   -0.0000   -0.0000   -0.0000
    10 N1     4f1-       0.0104    0.0000    0.0013   -0.0003
    11 N1     4f1-       0.0000   -0.0007   -0.0017   -0.0039
    12 X1     2py        0.0262    0.6296    1.6969    4.6353
    13 X1     2py       -0.0171   -1.3440   -3.6316   -4.2904
    14 X1     2py        0.0055    1.7950    1.9508    1.5066



      Molecular orbitals for symmetry species 4: b1g


      Orbital                 1
      Energy             0.0537
      Occ. No.           0.0000

     1 N1     3d2-      -0.0017
     2 N1     3d2-       0.0167
     3 N1     3d2-      -0.0965
     4 N1     4f2-       0.0002
     5 N1     4f2-       0.0004
     6 X1     3d2-       0.4293
     7 X1     3d2-      -0.9741
     8 X1     3d2-       1.5663



      Molecular orbitals for symmetry species 5: b1u


      Orbital                 1         2         3         4         5
      Energy           -15.6509   -0.7669    0.0120    0.0417    0.1048
      Occ. No.           2.0000    2.0000    0.0000    0.0000    0.0000

     1 N1     1s         0.9992    0.0058   -0.0008    0.0004   -0.0043
     2 N1     1s        -0.0018    0.9251   -0.0161   -0.0446   -0.1163
     3 N1     1s         0.0011   -0.0018    0.0002   -0.0016   -0.0011
     4 N1     1s         0.0313    0.3308    0.1248   -0.2860    1.4780
     5 N1     1s         0.0113    0.0867    1.5743   -3.7426   13.4475
     6 N1     2pz       -0.0045    0.4482   -0.0048   -0.0197   -0.0337
     7 N1     2pz        0.0009   -0.0309   -0.0035    0.0064   -0.0482
     8 N1     2pz       -0.0124   -0.1634   -0.0670    0.1259   -0.8439
     9 N1     2pz       -0.0026   -0.0114   -0.7019    1.6719   -5.7305
    10 N1     3d0        0.0009   -0.0048    0.0003    0.0004    0.0024
    11 N1     3d0        0.0013   -0.0027    0.0012    0.0036    0.0297
    12 N1     3d0        0.0023    0.0201    0.0289   -0.0637    0.2635
    13 N1     3d2+      -0.0000    0.0000   -0.0000    0.0000   -0.0000
    14 N1     3d2+      -0.0000   -0.0000    0.0000   -0.0000    0.0000
    15 N1     3d2+      -0.0000    0.0000   -0.0000   -0.0000    0.0000
    16 N1     4f0       -0.0007   -0.0014    0.0003   -0.0009   -0.0001
    17 N1     4f0       -0.0000    0.0004   -0.0031    0.0066   -0.0218
    18 N1     4f2+      -0.0000   -0.0000    0.0000   -0.0000    0.0000
    19 N1     4f2+       0.0000    0.0000   -0.0000    0.0000   -0.0000
    20 X1     2pz        0.0006    0.0061    0.9832   -2.5940    7.1238
    21 X1     2pz       -0.0001   -0.0038   -1.5757    4.0993   -5.1482
    22 X1     2pz        0.0000    0.0013    1.8825   -2.0538    1.6615



      Molecular orbitals for symmetry species 6: b2g


      Orbital                 1         2         3
      Energy             0.0000    0.0499    0.1387
      Occ. No.           0.0641    0.0000    0.0000

     1 N1     2px        1.3760   -0.0156   -0.0520
     2 N1     2px       -0.0064    0.0123   -0.0274
     3 N1     2px       -0.0610    0.5130   -1.1214
     4 N1     2px        0.3693   12.4211  -29.8192
     5 N1     3d1+      -0.0003    0.0022   -0.0047
     6 N1     3d1+      -0.0661   -0.0469    0.1047
     7 N1     3d1+      -0.0667   -0.1992    0.3791
     8 N1     4f1+      -0.0130    0.0012   -0.0025
     9 N1     4f1+       0.0200    0.0305   -0.0613
    10 N1     4f3+       0.0000   -0.0000    0.0000
    11 N1     4f3+      -0.0000    0.0000   -0.0000
    12 X1     3d1+      -0.0628   -0.8389    2.0982
    13 X1     3d1+      -0.0752   -4.3566   10.1092
    14 X1     3d1+       0.0073    2.1282   -2.2504



      Molecular orbitals for symmetry species 7: b3g


      Orbital                 1         2         3
      Energy             0.0000    0.0499    0.1387
      Occ. No.           0.0641    0.0000    0.0000

     1 N1     2py        1.3760   -0.0156   -0.0520
     2 N1     2py       -0.0064    0.0123   -0.0274
     3 N1     2py       -0.0610    0.5130   -1.1214
     4 N1     2py        0.3693   12.4211  -29.8192
     5 N1     3d1-      -0.0003    0.0022   -0.0047
     6 N1     3d1-      -0.0661   -0.0469    0.1047
     7 N1     3d1-      -0.0667   -0.1992    0.3791
     8 N1     4f3-      -0.0000    0.0000   -0.0000
     9 N1     4f3-       0.0000   -0.0000    0.0000
    10 N1     4f1-      -0.0130    0.0012   -0.0025
    11 N1     4f1-       0.0200    0.0305   -0.0613
    12 X1     3d1-      -0.0628   -0.8389    2.0982
    13 X1     3d1-      -0.0752   -4.3566   10.1092
    14 X1     3d1-       0.0073    2.1282   -2.2504
--

      Von Neumann Entropy (Root  1) =  0.40934


      Mulliken population analysis for root number:  1
      -----------------------------------------------


++    Molecular charges:
      ------------------

      Mulliken charges per centre and basis function type
      ---------------------------------------------------

                N1      X1    
      1s       4.0539 -0.1048
      2px      0.9685  0.0072
      2pz      1.0136  0.0022
      2py      0.9685  0.0072
      3d2+     0.0000  0.0000
      3d1+     0.0267 -0.0015
      3d0      0.0010 -0.0381
      3d1-     0.0267 -0.0015
      3d2-     0.0000  0.0000
      4f3+     0.0000  0.0000
      4f2+     0.0000  0.0000
      4f1+     0.0019  0.0000
      4f0      0.0019  0.0000
      4f1-     0.0019  0.0000
      4f2-     0.0000  0.0000
      4f3-     0.0000  0.0000
      Total    7.0647 -0.1294

      N-E     -0.0647  0.1294

      Total electronic charge=   14.000000

      Total            charge=   -0.000000
--



      Expectation values of various properties for root number:  1
      -----------------------------------------------------------


++    Molecular properties:
      ---------------------

      Charge (e):
                      =   -0.0000
      Dipole Moment (Debye):
      Origin of the operator (Ang)=    0.0000    0.0000    0.0000
                   X=  0.0000E+00               Y=  0.0000E+00               Z=  0.0000E+00           Total=  0.0000E+00
      Quadrupole Moment (Debye*Ang):
      Origin of the operator (Ang)=    0.0000    0.0000    0.0000
                  XX= -1.0169E+01              XY=  0.0000E+00              XZ=  0.0000E+00              YY= -1.0169E+01
                  YZ=  0.0000E+00              ZZ= -1.1861E+01
      In traceless form (Debye*Ang)
                  XX=  8.4625E-01              XY=  0.0000E+00              XZ=  0.0000E+00              YY=  8.4625E-01
                  YZ=  0.0000E+00              ZZ= -1.6925E+00
--


  Input file to MOLDEN was generated!

      Average orbitals are written to the RASORB file
      Natural orbitals for root   1 are written to the RASORB.1 file
      Spin density orbitals for root   1 are written to the SPDORB.1 file

--- Stop Module: rasscf at Tue Jun  8 22:05:30 2021 /rc=_RC_ALL_IS_WELL_ ---
*** files: xms.rasscf.molden xms.RasOrb xms.RasOrb.1 xms.rasscf.h5 xms.SpdOrb.1 xmldump
    saved to directory /home/gayverjr/opencap_examples
--- Module rasscf spent 1 second ---

>>> COPY /home/gayverjr/opencap_examples/xms.RasOrb INPORB

--- Start Module: rasscf at Tue Jun  8 22:05:30 2021 ---

()()()()()()()()()()()()()()()()()()()()()()()()()()()()()()()()()()()()()()()()()()()()()()()()()()

                                              &RASSCF

                                   only a single process is used
                       available to each process: 20 GB of memory, 16 threads
                                             pid: 19667
()()()()()()()()()()()()()()()()()()()()()()()()()()()()()()()()()()()()()()()()()()()()()()()()()()


      Header of the ONEINT file:
      --------------------------
      
      Integrals generated by Gateway/Seward, Tue Jun  8 22:05:21 2021


      OrdInt status: non-squared


      Cartesian coordinates in Angstrom:
      -----------------------------------------------------
      No.  Label        X            Y            Z        
      -----------------------------------------------------
       1   N1         0.00000000   0.00000000   0.54875677
       2   X1         0.00000000   0.00000000   0.00000000
       3   N1         0.00000000   0.00000000  -0.54875677
      -----------------------------------------------------
      Nuclear repulsion energy =   23.62584378

++    Wave function specifications:
      -----------------------------

      Number of closed shell electrons          10
      Number of electrons in active shells       5
      Max number of holes in RAS1 space          0
      Max nr of electrons in RAS3 space          0
      Number of inactive orbitals                5
      Number of active orbitals                 10
      Number of secondary orbitals             104
      Spin quantum number                      0.5
      State symmetry                             6
--

++    Orbital specifications:
      -----------------------

      Symmetry species                           1   2   3   4   5   6   7   8
                                                ag b3u b2u b1g b1u b2g b3g  au
      Frozen orbitals                            0   0   0   0   0   0   0   0
      Inactive orbitals                          3   0   0   0   2   0   0   0
      Active orbitals                            0   1   1   0   0   4   4   0
      RAS1 orbitals                              0   0   0   0   0   0   0   0
      RAS2 orbitals                              0   1   1   0   0   4   4   0
      RAS3 orbitals                              0   0   0   0   0   0   0   0
      Secondary orbitals                        25  13  13   8  20  10  10   5
      Deleted orbitals                           0   0   0   0   0   0   0   0
      Number of basis functions                 28  14  14   8  22  14  14   5
--

++    CI expansion specifications:
      ----------------------------

      Number of CSFs                           872
      Number of determinants                  1376
      Number of root(s) required                10
      Root chosen for geometry opt.             10
      CI roots used                              1     2     3     4     5     6     7     8     9    10
      weights                                0.100 0.100 0.100 0.100 0.100 0.100 0.100 0.100 0.100 0.100
      highest root included in the CI           10
      max. size of the explicit Hamiltonian    200
--

++    Optimization specifications:
      ----------------------------

      RASSCF algorithm: Conventional
      Maximum number of macro iterations       200
      Maximum number of SX iterations          100
      Threshold for RASSCF energy            0.100E-07
      Threshold for max MO rotation          0.100E+00
      Threshold for max BLB element          0.100E-03
      Level shift parameter                  0.500E+00
      Make Quasi-Newton update
--

      The MO-coefficients are taken from the file:
      INPORB                                                                                                                          
      Title: RASSCF average (pseudo-natural) orbitals                                      

      Total molecular charge   -1.00

      ************************************************************************************************************************
      *                                                                                                                      *
      *                                            Wave function control section                                             *
      *                                                                                                                      *
      ************************************************************************************************************************


                                         RASSCF iterations: Energy and convergence statistics
                                         ----------------------------------------------------

      Iter CI   SX   CI       RASSCF       Energy    max ROT     max BLB   max BLB  Level Ln srch  Step   QN   Walltime
          iter iter root      energy       change     param      element    value   shift minimum  type update hh:mm:ss
 Nr of preliminary CI iterations:   4
        1   1   73    0  -108.50756930    0.00E+00  -0.26E+00*   1   7 6  0.10E+00*  0.64   0.00    SX    NO    0:00:00
        2   4   21    0  -108.55660837   -0.49E-01*  0.73E-01    1   7 6  0.39E-01*  0.57   0.00    SX    NO    0:00:00
        3   1   23    0  -108.56293929   -0.63E-02*  0.42E-01    1   7 6  0.16E-01*  0.56   0.00    SX    NO    0:00:00
        4   5   22    0  -108.56448939   -0.16E-02* -0.32E-01    1   5 6 -0.81E-02*  0.55   0.00    SX    NO    0:00:00
        5   4   21    0  -108.56496814   -0.48E-03* -0.41E-01    1   5 6 -0.47E-02*  0.55   2.50    LS   YES    0:00:00
        6   5   22    0  -108.56519431   -0.23E-03* -0.20E-01    1   5 7  0.20E-02*  0.56   1.06    QN   YES    0:00:00
        7   3   20    0  -108.56525351   -0.59E-04* -0.27E-01    1   5 7  0.16E-02*  0.56   2.50    LS   YES    0:00:00
        8   5   22    0  -108.56530844   -0.55E-04*  0.33E-01    1   7 7 -0.14E-02*  0.56   2.34    LS   YES    0:00:00
        9   5   22    0  -108.56533535   -0.27E-04* -0.22E-01    1   5 6  0.17E-02*  0.56   1.15    QN   YES    0:00:00
       10   5   22    0  -108.56537596   -0.41E-04* -0.69E-01    1   5 6  0.12E-02*  0.56   2.50    QN   YES    0:00:00
       11   8   22    0  -108.56546901   -0.93E-04*  0.13E+00*   1   7 6  0.98E-03*  0.56   1.79    QN   YES    0:00:00
       12   7   22    0  -108.56554605   -0.77E-04* -0.47E-01    1   7 7  0.18E-02*  0.56   1.02    QN   YES    0:00:00
       13   4   23    0  -108.56559640   -0.50E-04* -0.15E+00*   1   7 7  0.16E-02*  0.56   2.50    QN   YES    0:00:00
       14   5   22    0  -108.56576355   -0.17E-03* -0.11E+00*   1   5 6 -0.11E-02*  0.56   2.02    LS   YES    0:00:00
       15   5   22    0  -108.56581511   -0.52E-04* -0.86E-01    1   7 6 -0.16E-02*  0.56   1.66    QN   YES    0:00:00
       16   5   21    0  -108.56586783   -0.53E-04*  0.92E-01    1   7 6 -0.14E-02*  0.56   2.50    LS   YES    0:00:00
       17   5   22    0  -108.56590774   -0.40E-04* -0.97E-01    1   7 6 -0.11E-02*  0.56   2.50    LS   YES    0:00:00
       18   5   22    0  -108.56593377   -0.26E-04* -0.10E+00*   1   7 2  0.13E-02*  0.56   2.38    QN   YES    0:00:00
       19   5   21    0  -108.56596775   -0.34E-04* -0.10E+00*   1   7 2  0.85E-03*  0.56   2.45    LS   YES    0:00:00
       20   5   21    0  -108.56598360   -0.16E-04* -0.33E-01    3  14 1  0.51E-03*  0.56   1.43    QN   YES    0:00:00
       21   5   21    0  -108.56599392   -0.10E-04* -0.37E-01    1   7 6  0.39E-03*  0.56   2.26    LS   YES    0:00:00
       22   5   21    0  -108.56599833   -0.44E-05*  0.20E-01    2   9 5  0.42E-03*  0.56   1.10    QN   YES    0:00:00
       23   5   20    0  -108.56600381   -0.55E-05*  0.28E-01    1  12 7  0.37E-03*  0.56   2.50    LS   YES    0:00:00
       24   5   20    0  -108.56600817   -0.44E-05* -0.19E-01    1  12 7  0.46E-03*  0.56   1.67    QN   YES    0:00:00
       25   5   18    0  -108.56601300   -0.48E-05*  0.19E-01    1  12 7  0.35E-03*  0.56   2.07    LS   YES    0:00:00
       26   5   20    0  -108.56601477   -0.18E-05* -0.20E-01    1   7 6 -0.39E-03*  0.56   1.08    QN   YES    0:00:00
       27   5   20    0  -108.56601690   -0.21E-05* -0.25E-01    1  10 7 -0.20E-03*  0.56   2.37    LS   YES    0:00:00
       28   5   19    0  -108.56601796   -0.11E-05* -0.72E-02    1  10 7 -0.22E-03*  0.56   1.08    QN   YES    0:00:00
       29   4   19    0  -108.56601880   -0.84E-06* -0.10E-01    1   8 7 -0.14E-03*  0.56   2.50    LS   YES    0:00:00
       30   4   17    0  -108.56601962   -0.81E-06* -0.21E-01    2  12 1 -0.11E-03*  0.56   2.23    QN   YES    0:00:00
       31   5   18    0  -108.56602069   -0.11E-05*  0.18E-01    2  10 5  0.17E-03*  0.56   1.69    QN   YES    0:00:00
       32   5   17    0  -108.56602140   -0.71E-06*  0.17E-01    2  10 5  0.13E-03*  0.56   1.84    QN   YES    0:00:00
       33   5   18    0  -108.56602199   -0.60E-06*  0.15E-01    1  12 7 -0.78E-04   0.56   1.84    QN   YES    0:00:00
       34   5   18    0  -108.56602249   -0.50E-06* -0.11E-01    1   6 6  0.70E-04   0.56   1.79    QN   YES    0:00:00
       35   5   17    0  -108.56602285   -0.36E-06*  0.53E-02    2  10 5 -0.96E-04   0.56   1.62    QN   YES    0:00:00
       36   4   16    0  -108.56602302   -0.18E-06*  0.24E-02    3  12 1  0.67E-04   0.56   1.47    QN   YES    0:00:00
       37   3   15    0  -108.56602308   -0.60E-07*  0.16E-02    3   9 1  0.32E-04   0.56   1.45    QN   YES    0:00:00
       38   2   14    0  -108.56602310   -0.22E-07*  0.77E-03    1   7 7  0.14E-04   0.56   1.55    QN   YES    0:00:00
       39   2   12    0  -108.56602312   -0.12E-07*  0.77E-03    2  10 5  0.20E-04   0.56   1.59    QN   YES    0:00:00
       40   2   11    0  -108.56602312   -0.70E-08  -0.81E-03    3   9 1 -0.17E-04   0.56   1.46    QN   YES    0:00:00
      Convergence after 40 iterations
       41   2   11    0  -108.56602313   -0.35E-08  -0.81E-03    3   9 1 -0.10E-04   0.56   1.46    QN   YES    0:00:00

      ************************************************************************************************************************
                                                      Wave function printout:
                       occupation of active orbitals, and spin coupling of open shells (u,d: Spin up or down)
      ************************************************************************************************************************

      Note: transformation to natural orbitals
      has been made, which may change the order of the CSFs.

      printout of CI-coefficients larger than  0.05 for root  1
      energy=    -109.019654
      conf/sym  2 3 6666 7777     Coeff  Weight
             1  2 2 u000 0000   0.12732 0.01621
             2  2 2 0u00 0000   0.95875 0.91921
             4  0 2 2u00 0000  -0.13314 0.01773
            46  u d ud00 u000  -0.05591 0.00313
            91  u d uu00 d000   0.09882 0.00977
            95  u u du00 d000  -0.08145 0.00663
           170  2 0 0u00 2000   0.13063 0.01706

      printout of CI-coefficients larger than  0.05 for root  2
      energy=    -108.940532
      conf/sym  2 3 6666 7777     Coeff  Weight
             1  2 2 u000 0000   0.39596 0.15678
             2  2 2 0u00 0000  -0.06185 0.00383
             7  2 2 00u0 0000   0.87044 0.75767
             9  0 2 20u0 0000  -0.12456 0.01552
            23  2 2 000u 0000  -0.14111 0.01991
           107  u d u0u0 d000   0.09241 0.00854
           111  u u d0u0 d000  -0.07456 0.00556
           136  2 0 u000 2000   0.05679 0.00323
           238  2 0 00u0 2000   0.11836 0.01401

      printout of CI-coefficients larger than  0.05 for root  3
      energy=    -108.863626
      conf/sym  2 3 6666 7777     Coeff  Weight
             1  2 2 u000 0000  -0.76208 0.58077
             2  2 2 0u00 0000   0.09872 0.00974
             7  2 2 00u0 0000   0.25915 0.06716
            23  2 2 000u 0000  -0.53981 0.29139
            25  0 2 200u 0000   0.08118 0.00659
            42  u d 2000 u000   0.06970 0.00486
            87  u u 2000 d000   0.07608 0.00579
           136  2 0 u000 2000  -0.11123 0.01237
           374  u d u00u d000  -0.06012 0.00361
           421  2 0 000u 2000  -0.07309 0.00534

      printout of CI-coefficients larger than  0.05 for root  4
      energy=    -108.737198
      conf/sym  2 3 6666 7777     Coeff  Weight
             1  2 2 u000 0000  -0.45192 0.20423
             2  2 2 0u00 0000   0.05299 0.00281
             7  2 2 00u0 0000   0.33270 0.11069
            23  2 2 000u 0000   0.79014 0.62432
            25  0 2 200u 0000  -0.10472 0.01097
            87  u u 2000 d000   0.05304 0.00281
           136  2 0 u000 2000  -0.06818 0.00465
           374  u d u00u d000   0.07792 0.00607
           382  u u d00u d000  -0.06620 0.00438
           421  2 0 000u 2000   0.10788 0.01164

      printout of CI-coefficients larger than  0.05 for root  5
      energy=    -108.387787
      conf/sym  2 3 6666 7777     Coeff  Weight
            46  u d ud00 u000   0.13897 0.01931
            50  u u dd00 u000   0.09393 0.00882
            87  u u 2000 d000  -0.08031 0.00645
            88  u u 2000 0d00  -0.48639 0.23658
            91  u d uu00 d000   0.05182 0.00269
            99  u u ud00 d000  -0.12129 0.01471
           136  2 0 u000 2000  -0.07790 0.00607
           138  2 0 u000 ud00  -0.46825 0.21926
           153  0 2 u000 2000   0.07285 0.00531
           155  0 2 u000 ud00   0.47330 0.22401
           659  u u 0000 2d00   0.49716 0.24717

[...]
     3 N1     1s         0.0597    0.0018   -0.1885   -0.4374   -0.0007    0.5686    0.8714    0.0001    0.0206   -0.0013
     4 N1     1s        -3.6294   -0.6228   63.5227   42.1625   -0.1200   13.9333   55.2476   -0.1840    8.7928   -0.0249
     5 N1     1s        -1.3248   -0.4201   40.5805   15.2366   -0.0691   11.5056   24.8370   -0.0422    1.9257   -0.0104
     6 N1     2pz       -1.2351   -0.0069    0.6242   -0.6219    0.0043   -1.6297    3.3567    0.0122   -0.6385   -0.0025
     7 N1     2pz        0.0768    0.0323   -3.4009   -3.1681    0.0082   -0.4172   -9.7519    0.0317   -1.5690    0.0052
     8 N1     2pz        3.4296    0.2991  -30.1262  -19.4065    0.0590   -7.1934  -26.1981    0.0885   -4.2417    0.0106
     9 N1     2pz       -0.9166    0.0972   -9.5057   -2.4415    0.0133   -2.5079   -5.6563    0.0003    0.0339    0.0032
    10 N1     3d0       -0.0424   -0.0006    0.0636    0.0965    0.0002   -0.1387    0.0382    0.0072   -0.3517   -0.0018
    11 N1     3d0       -0.7030   -0.0200    2.0492    2.2570   -0.0094    2.0421    3.9064   -0.0274    1.3852   -0.0004
    12 N1     3d0        0.4281   -0.0574    5.8699    2.2073   -0.0087    1.5697    4.2276   -0.0050    0.2099   -0.0024
    13 N1     3d2+       0.0000    0.0327    0.0007    0.0001    0.0252   -0.0002   -0.0005    1.1063    0.0228   -0.6344
    14 N1     3d2+      -0.0003    0.4182    0.0040   -0.0039   -2.2508   -0.0049    0.0001   -1.2729   -0.0263    0.7419
    15 N1     3d2+       0.0005   -1.6403   -0.0160   -0.0009   -0.8736   -0.0022    0.0003    0.3694    0.0065    0.4835
    16 N1     4f0        0.0719    0.0011   -0.1159   -0.3028    0.0001    0.1964   -0.2960    0.0250   -1.2768   -0.0011
    17 N1     4f0       -0.2262    0.0109   -1.0859    1.2893    0.0016   -1.6101   -0.5403   -0.0088    0.4437    0.0005
    18 N1     4f2+       0.0003   -0.1012   -0.0010   -0.0000   -0.0864   -0.0002    0.0009    0.6203    0.0101    1.2979
    19 N1     4f2+      -0.0011    1.3430    0.0129    0.0033    2.3303    0.0054   -0.0003    0.2062    0.0058   -1.0592
    20 X1     2pz        1.4025   -0.0183    1.9379   -0.4880    0.0001    0.2835    1.0749    0.0088   -0.4589   -0.0015
    21 X1     2pz       -0.7438    0.0035   -0.4311    0.4413   -0.0010    0.0307   -0.2216   -0.0051    0.2639    0.0006
    22 X1     2pz        0.2182   -0.0005    0.0778   -0.1444    0.0004   -0.0252    0.0368    0.0016   -0.0801   -0.0002


      Orbital                21        22
      Energy             0.0000    0.0000
      Occ. No.           0.0000    0.0000

     1 N1     1s         0.4961    7.2936
     2 N1     1s         0.5900   21.6326
     3 N1     1s        -0.7440   -6.0095
     4 N1     1s        -8.2287   16.0477
     5 N1     1s        -0.8433   11.0596
     6 N1     2pz        0.5911    1.9791
     7 N1     2pz        1.6073  -12.4472
     8 N1     2pz        2.8337  -12.1883
     9 N1     2pz        0.2219   -2.1283
    10 N1     3d0       -1.5425    1.0648
    11 N1     3d0        0.0109    5.1625
    12 N1     3d0       -0.3601    1.6399
    13 N1     3d2+       0.0007    0.0000
    14 N1     3d2+      -0.0009   -0.0000
    15 N1     3d2+      -0.0003   -0.0000
    16 N1     4f0        1.0244   -0.9812
    17 N1     4f0       -0.7555   -1.0039
    18 N1     4f2+      -0.0009   -0.0000
    19 N1     4f2+       0.0009    0.0000
    20 X1     2pz       -0.1170   -0.0165
    21 X1     2pz        0.0623    0.1733
    22 X1     2pz       -0.0192   -0.0663



      Molecular orbitals for symmetry species 6: b2g


      Orbital                 1         2         3         4         5         6         7         8         9        10
      Energy             0.0000    0.0000    0.0000    0.0000    0.0000    0.0000    0.0000    0.0000    0.0000    0.0000
      Occ. No.           0.7184    0.3976    0.1033    0.1003    0.0000    0.0000    0.0000    0.0000    0.0000    0.0000

     1 N1     2px        1.0765   -0.1005   -0.1933   -0.1924   -0.3365    0.2388    0.7711   -0.0016   -0.0659    1.0664
     2 N1     2px        0.0187    0.0115   -0.0207    0.0271    0.0639    0.3134    0.0269    0.0054    1.1651    1.4748
     3 N1     2px        0.3164    0.4998   -0.6233    2.0963   -0.1773   11.3955  -13.7178    0.0601    8.5865   13.5733
     4 N1     2px        0.9082   12.3476  -13.7715   64.1333  -59.2325   17.4124  -39.6562    0.0564    2.6215   25.3491
     5 N1     3d1+       0.0085    0.0016   -0.0035    0.0099   -0.0113    0.0187   -0.0672    0.0004    0.0551    0.0621
     6 N1     3d1+       0.0095   -0.0480    0.0473   -0.2177    0.1667   -0.6500    1.2282   -0.0062   -0.7469   -4.7970
     7 N1     3d1+      -0.0526   -0.2017    0.2601   -0.5096   -2.1364   -7.5407    3.9787   -0.0276   -4.8604   -3.9989
     8 N1     4f1+      -0.0068    0.0017    0.0012    0.0113   -0.0263   -0.0203   -0.0514   -0.0002   -0.0738    0.1369
     9 N1     4f1+      -0.0041    0.0311   -0.0328    0.1139    0.0516    0.6120   -0.6813    0.0091    1.8024    2.0086
    10 N1     4f3+      -0.0001   -0.0001    0.0002    0.0002    0.0002   -0.0001   -0.0004   -0.1271    0.0005    0.0001
    11 N1     4f3+       0.0000   -0.0001   -0.0002   -0.0001   -0.0006    0.0003    0.0025    1.4345   -0.0061   -0.0003
    12 X1     3d1+      -0.0450   -0.8289    0.6534   -5.6086   10.6173    1.2169    6.5467   -0.0025    1.2871   -4.2420
    13 X1     3d1+      -0.2472   -4.3380    5.9010  -17.1980   11.7780   -5.1814    8.0550   -0.0136   -1.1182   -5.1401
    14 X1     3d1+       0.1009    2.1233   -1.6809    2.4659   -0.9536    0.7450   -0.7231    0.0017    0.2035    0.4721


      Orbital                11        12        13        14
      Energy             0.0000    0.0000    0.0000    0.0000
      Occ. No.           0.0000    0.0000    0.0000    0.0000

     1 N1     2px       -3.0343   -0.0025    2.3759   -1.1656
     2 N1     2px        4.4206    0.0030   -5.5434    2.9883
     3 N1     2px        4.6470   -0.0015   -9.0550   -0.1333
     4 N1     2px       -2.6290   -0.0195  -13.3989   -0.0721
     5 N1     3d1+      -0.2677   -0.0010   -0.9774   -0.9688
     6 N1     3d1+      -1.8156    0.0008    5.4326   -1.8319
     7 N1     3d1+      -2.1326   -0.0007    2.1331    0.6434
     8 N1     4f1+      -0.5430   -0.0009   -0.9096    1.7730
     9 N1     4f1+       1.3036    0.0006   -1.5658   -0.0148
    10 N1     4f3+      -0.0015    1.2204   -0.0006   -0.0002
    11 N1     4f3+       0.0008   -0.6718    0.0004    0.0001
    12 X1     3d1+       1.1894    0.0038    2.3686   -0.3428
    13 X1     3d1+       0.2906    0.0037    2.6797    0.1438
    14 X1     3d1+       0.0166   -0.0002   -0.2416   -0.0359



      Molecular orbitals for symmetry species 7: b3g


      Orbital                 1         2         3         4         5         6         7         8         9        10
      Energy             0.0000    0.0000    0.0000    0.0000    0.0000    0.0000    0.0000    0.0000    0.0000    0.0000
      Occ. No.           0.6307    0.2945    0.0002    0.0022    0.0000    0.0000    0.0000    0.0000    0.0000    0.0000

     1 N1     2py        1.0925   -0.1187   -0.0487   -1.3831    0.0793   -0.1553    0.0903    0.4044   -0.0643    0.8694
     2 N1     2py        0.0188    0.0116    0.0377    0.1463   -0.0221   -0.0421    0.2953   -0.0721    1.1653    1.2931
     3 N1     2py        0.3218    0.4982    0.0997    1.4126   -1.7274   -2.2165    7.4112  -15.0463    8.5869   14.6607
     4 N1     2py        1.3154   12.1503    0.2636   -0.4599  -43.6575  -70.6418  -17.5775  -48.5589    2.5753   27.7400
     5 N1     3d1-       0.0072    0.0017   -0.0037    0.0291   -0.0096   -0.0094    0.0007   -0.0615    0.0550    0.0693
     6 N1     3d1-       0.0010   -0.0463   -0.0123    0.3265    0.1428    0.2903   -0.3451    1.0751   -0.7472   -4.7433
     7 N1     3d1-      -0.0620   -0.2016   -0.0148    0.1243    0.5277    0.1509   -6.7136    5.5287   -4.8601   -4.1520
     8 N1     4f3-      -0.0001   -0.0001   -0.7487    0.0216   -0.0010    0.0016   -0.0013   -0.0028    0.0006   -0.0028
     9 N1     4f3-      -0.0001   -0.0001   -0.5766   -0.0121   -0.0022    0.0039   -0.0041   -0.0121   -0.0064   -0.0005
    10 N1     4f1-      -0.0067    0.0018    0.0041    0.0275   -0.0059   -0.0149   -0.0346   -0.0326   -0.0740    0.1417
    11 N1     4f1-      -0.0021    0.0307    0.0020   -0.1139   -0.0882   -0.1126    0.4601   -0.6895    1.8026    1.9985
    12 X1     3d1-      -0.0823   -0.8063   -0.0526    0.1758    3.0435    8.6444    7.0985    7.1149    1.2904   -4.6864
    13 X1     3d1-      -0.3685   -4.2808   -0.0522    0.3383   13.7713   16.0565    1.9393   10.2729   -1.1065   -5.5620
    14 X1     3d1-       0.1365    2.1111    0.0048   -0.2334   -2.6990   -1.5830    0.0872   -1.0389    0.2023    0.4715


      Orbital                11        12        13        14
      Energy             0.0000    0.0000    0.0000    0.0000
      Occ. No.           0.0000    0.0000    0.0000    0.0000

     1 N1     2py       -0.0446   -2.9647   -2.2786   -1.1363
     2 N1     2py        0.0479    4.5174    5.5190    2.9701
     3 N1     2py        0.0180    4.8292    9.0101   -0.1684
     4 N1     2py       -0.2353   -2.1925   13.5053   -0.0604
     5 N1     3d1-      -0.0041   -0.2591    0.9769   -0.9712
     6 N1     3d1-      -0.0083   -1.9818   -5.4710   -1.8274
     7 N1     3d1-      -0.0135   -2.2161   -2.1369    0.6457
     8 N1     4f3-      -0.9718    0.0140    0.0000    0.0039
     9 N1     4f3-       1.4752   -0.0102    0.0014    0.0001
    10 N1     4f1-      -0.0034   -0.5288    0.9206    1.7714
    11 N1     4f1-       0.0121    1.3615    1.5722   -0.0160
    12 X1     3d1-       0.0550    1.1176   -2.3973   -0.3442
    13 X1     3d1-       0.0476    0.1879   -2.7078    0.1379
    14 X1     3d1-      -0.0070    0.0363    0.2516   -0.0330



      Molecular orbitals for symmetry species 8: au 


      Orbital                 1         2         3         4         5
      Energy             0.0000    0.0000    0.0000    0.0000    0.0000
      Occ. No.           0.0000    0.0000    0.0000    0.0000    0.0000

     1 N1     3d2-       0.0241    0.0327    0.0252    1.1066   -0.6344
     2 N1     3d2-      -0.0187    0.4182   -2.2509   -1.2732    0.7419
     3 N1     3d2-       2.2325   -1.6404   -0.8736    0.3694    0.4835
     4 N1     4f2-       0.0359   -0.1013   -0.0864    0.6203    1.2979
     5 N1     4f2-      -0.2972    1.3431    2.3303    0.2062   -1.0592
--

      Von Neumann Entropy (Root  1) =  0.42269


      Mulliken population analysis for root number:  1
      -----------------------------------------------


++    Molecular charges:
      ------------------

      Mulliken charges per centre and basis function type
      ---------------------------------------------------

                N1      X1    
      1s       4.1049 -0.1107
      2px      0.9621  0.0076
      2pz      0.9597  0.0026
      2py      0.9721  0.0074
      3d2+     0.0000  0.0000
      3d1+     0.0238  0.0158
      3d0      0.0057 -0.0376
      3d1-     0.0230 -0.0014
      3d2-     0.0000  0.0000
      4f3+     0.0000  0.0000
      4f2+     0.0000  0.0000
      4f1+     0.0023  0.0000
      4f0      0.0026  0.0000
      4f1-     0.0018  0.0000
      4f2-     0.0000  0.0000
      4f3-     0.0001  0.0000
      Total    7.0581 -0.1161

      N-E     -0.0581  0.1161

      Total electronic charge=   14.000000

      Total            charge=   -0.000000
--



      Expectation values of various properties for root number:  1
      -----------------------------------------------------------


++    Molecular properties:
      ---------------------

      Charge (e):
                      =   -0.0000
      Dipole Moment (Debye):
      Origin of the operator (Ang)=    0.0000    0.0000    0.0000
                   X=  0.0000E+00               Y=  0.0000E+00               Z=  0.0000E+00           Total=  0.0000E+00
      Quadrupole Moment (Debye*Ang):
      Origin of the operator (Ang)=    0.0000    0.0000    0.0000
                  XX= -1.0292E+01              XY=  0.0000E+00              XZ=  0.0000E+00              YY= -1.0267E+01
                  YZ=  0.0000E+00              ZZ= -1.1793E+01
      In traceless form (Debye*Ang)
                  XX=  7.3773E-01              XY=  0.0000E+00              XZ=  0.0000E+00              YY=  7.7573E-01
                  YZ=  0.0000E+00              ZZ= -1.5135E+00
--


  Input file to MOLDEN was generated!

      Average orbitals are written to the RASORB file
      Natural orbitals for root   1 are written to the RASORB.1 file
      Spin density orbitals for root   1 are written to the SPDORB.1 file

--- Stop Module: rasscf at Tue Jun  8 22:06:15 2021 /rc=_RC_ALL_IS_WELL_ ---
*** files: xms.rasscf.molden xms.RasOrb xms.RasOrb.1 xms.rasscf.h5 xms.SpdOrb.1 xmldump
    saved to directory /home/gayverjr/opencap_examples

--- Start Module: caspt2 at Tue Jun  8 22:06:15 2021 ---

()()()()()()()()()()()()()()()()()()()()()()()()()()()()()()()()()()()()()()()()()()()()()()()()()()

                                              &CASPT2

                                   only a single process is used
                       available to each process: 20 GB of memory, 16 threads
                                             pid: 1264
()()()()()()()()()()()()()()()()()()()()()()()()()()()()()()()()()()()()()()()()()()()()()()()()()()


++    Wave function specifications:
      -----------------------------

      Number of closed shell electrons           6
      Number of electrons in active shells       4
      Max number of holes in RAS1 space          0
      Max number of electrons in RAS3 space      0
      Number of inactive orbitals                3
      Number of active orbitals                 10
      Number of secondary orbitals             104
      Spin quantum number                      0.0
      State symmetry                             1
      Number of CSFs                           249
      Number of root(s) available                1
      Root passed to geometry opt.               1
      A file JOBMIX will be created
      This is a CASSCF or RASSCF reference function
--

++    Orbital specifications:
      -----------------------

      Symmetry species                           1   2   3   4   5   6   7   8
                                                ag b3u b2u b1g b1u b2g b3g  au
      Frozen orbitals                            1   0   0   0   1   0   0   0
      Inactive orbitals                          2   0   0   0   1   0   0   0
      Active orbitals                            0   1   1   0   0   4   4   0
      Secondary orbitals                        25  13  13   8  20  10  10   5
      Deleted orbitals                           0   0   0   0   0   0   0   0
      Number of basis functions                 28  14  14   8  22  14  14   5
--

++    CASPT2 specifications:
      ----------------------

      Type of calculation                        SS-CASPT2
      Fock operator                              state-specific
      IPEA shift                                 0.25
      Real shift                                 0.00
      Imaginary shift                            0.00
      The input orbitals will be transformed to quasi-canonical
--

--------------------------------------------------------------------------------
 Estimated memory requirements:
  POLY3 :                   295530
  RHS:                      303898
  SIGMA :                   327264
  PRPCTL:                        0
 Available workspace:   2249978362

++ CASPT2 computation for group   1

********************************************************************************
 Multi-State initialization phase begins for group   1
--------------------------------------------------------------------------------
********************************************************************************
 Compute H0 matrices for state    1
--------------------------------------------------------------------------------
--------------------------------------------------------------------------------
 H0 matrices have been computed.

********************************************************************************
  CASPT2 EQUATION SOLUTION
--------------------------------------------------------------------------------

  Total nr of CASPT2 parameters:
   Before reduction:      138010
   After  reduction:       98765

 The contributions to the second order correlation energy in atomic units.
-----------------------------------------------------------------------------------------------------------------------------
  IT.      VJTU        VJTI        ATVX        AIVX        VJAI        BVAT        BJAT        BJAI        TOTAL       RNORM  
-----------------------------------------------------------------------------------------------------------------------------
   1     0.000000   -0.007790   -0.007269   -0.074033   -0.014602   -0.033104   -0.078492   -0.069818   -0.285109    0.007725
   2     0.000000   -0.007838   -0.007304   -0.074234   -0.014649   -0.033106   -0.078483   -0.069833   -0.285447    0.001649
   3     0.000000   -0.007840   -0.007310   -0.074269   -0.014650   -0.033108   -0.078495   -0.069835   -0.285508    0.000342
   4     0.000000   -0.007840   -0.007309   -0.074265   -0.014649   -0.033108   -0.078494   -0.069836   -0.285501    0.000083
   5     0.000000   -0.007840   -0.007309   -0.074263   -0.014649   -0.033108   -0.078494   -0.069836   -0.285498    0.000019
   6     0.000000   -0.007840   -0.007309   -0.074264   -0.014649   -0.033108   -0.078494   -0.069836   -0.285498    0.000004
-----------------------------------------------------------------------------------------------------------------------------

  FINAL CASPT2 RESULT:

      Reference energy:        -109.0691052785
      E2 (Non-variational):      -0.2854984095
      E2 (Variational):          -0.2854983777
      Total energy:            -109.3546036563
      Residual norm:              0.0000009108
      Reference weight:           0.93136

      Contributions to the CASPT2 correlation energy
      Active & Virtual Only:         -0.0404165163
      One Inactive Excited:          -0.1527575139
      Two Inactive Excited:          -0.0923243792


++ Denominators, etc.
--------------------------------------------------------------------------------------------------------------
 Report on small energy denominators, large coefficients, and large energy contributions.
CASE  SYMM ACTIVE-MIX  NON-ACTIVE INDICES          DENOMINATOR     RHS VALUE       COEFFICIENT     CONTRIBUTION
VJTIP    1  Mu1.0007  In5.002 In5.002               1.78754813     -0.05532025      0.03061810     -0.00169380
VJTIP    1  Mu1.0008  In5.002 In5.002               1.81263715      0.05220168     -0.02881203     -0.00150404
AIVX     5  Mu5.0010  In1.002 Se5.011               3.29913735     -0.09635029      0.02892515     -0.00278695
AIVX     5  Mu5.0007  In1.003 Se5.011               2.41072079     -0.06255973      0.02606159     -0.00163041
AIVX     5  Mu5.0009  In1.003 Se5.011               2.45205992     -0.08339021      0.03390699     -0.00282751
AIVX     5  Mu5.0010  In1.003 Se5.011               2.46178957      0.08946006     -0.03604151     -0.00322428
BJAIP    1  Se5.011 In1.003 Se5.011 In1.003         3.45066493      0.08798974     -0.02549936     -0.00224368
--

   (Skipping property calculation,
    use PROP keyword to activate)
--

  Total CASPT2 energies:
::    CASPT2 Root  1     Total energy:   -109.35460366

  A NEW JOBIPH FILE NAMED 'JOBMIX' IS PREPARED.
********************************************************************************
--- Stop Module: caspt2 at Tue Jun  8 22:06:16 2021 /rc=_RC_ALL_IS_WELL_ ---
*** files: xmldump
    saved to directory /home/gayverjr/opencap_examples

.##################.
.# Happy landing! #.
.##################.

    Timing: Wall=55.08 User=163.59 System=14.31
