*******************************************************
*** WorkDir is not cleaned in parallel environment! ***
*******************************************************
   This run of MOLCAS is using the pymolcas driver

                             OPE
                             OPE          NMOL  CASOP  ENMOLC A   SO
                 OPE        NMOLC        AS  OP EN  MO LC     AS  OP
                OPENM       OL CA        SO  PE NM  OL CA     SOP EN
                OP EN      MO   LC       AS  OP ENMOL  CASO   PENMOL
                OP  EN     MO   LC       AS  OP EN     MO     LC ASO
               OP   E  NMOL  C  AS       OP  EN MO     LC     AS  OP
               OP  E   NMO   LC AS        OPEN  MO     LCASOP EN   M
               O  PEN   MO  LCA  SO
            OPE   NMO   L   CAS    OP
        OPENMOL  CASOP     ENMOL   CASOPE
     OPENMOLCA   SOPENMOLCASOPEN   MOLCASOPE
    OPENMOLCAS   OP           EN   MOL    CAS
    OPENMOLCAS       OP  ENM        O     LCA
    OPENMOLCAS    OPEN  MOLCASO     P  E  NMO
    OPENMOLCAS     OP               E  N  MOL
    OPENMOLCA   SO           PENM   O  L  CAS    OPEN    MO    LCAS
    OPENMOLCA   SOP           ENM   O  L  CAS   OP  EN  MOLC  AS   O
    OPENMOLCA   SOPE           NM      O  LCA   S      OP  EN MO
    OPENMOLC                AS         O  PEN   M      OL  CA  SOPE
    OPENMO        LCASOPE  NMOL        C  ASO   P      ENMOLC     AS
    OPE     NMO      LCA  SO     P     E   NM   OL  CA SO  PE N   MO
          OPENMOLCA            SOPE   NMO        LCAS  O    P  ENMO
     OPENMOLCASOPENMOLCASOPENMOLCASOPENMOLCA
        OPENMOLCASOPENMOLCASOPENMOLCASOPE
            OPENMOLCASOPENMOLCASOPENM
               OPENMOLCASOPENMOLCA        version: 21.02
                   OPENMOLCASO
                       OPE                tag: 957-gb1e1fa9

 OpenMolcas is free software; you can redistribute it and/or modify it
 under the terms of the GNU Lesser General Public License version 2.1.
 OpenMolcas is distributed in the hope that it will be useful, but it
 is provided "as is" and without any express or implied warranties.
 For more details see the full text of the license in the file
 LICENSE or in <http://www.gnu.org/licenses/>.

                 Copyright (C) The OpenMolcas Authors
           For the author list and the recommended citation,
                   consult the file CONTRIBUTORS.md

           *************************************************
           * pymolcas version py2.18                       *
           *   build 7a16d2f9e823a0c2ad601740b42a4b0e      *
           *   (after the EMIL interpreter by V. Veryazov) *
           *************************************************

configuration info
------------------
Host name: dirac.bu.edu (Linux)
C Compiler ID: GNU
C flags: -std=gnu99 -fopenmp
Fortran Compiler ID: GNU
Fortran flags: -fno-aggressive-loop-optimizations -cpp -fdefault-integer-8 -fopenmp
Definitions: _MOLCAS_;_I8_;_LINUX_;_DMRG_
Parallel: OFF (GA=OFF)


   ----------------------------------------------------------------------
  |
  |             Project: eq
  |      Submitted from: /scratch/gayverjr/eq.3106429258
  |        Scratch area: /scratch/gayverjr/eq.3106429258
  |     Save outputs to: /home/gayverjr/opencap_examples
  |              Molcas: /home/qcsoftware/OpenMolcas/qcmaquis_build/build
  |
  | Scratch area is NOT empty
  |
  |      MOLCAS_DRIVER = /home/qcsoftware/bin/pymolcas
  | MOLCAS_NEW_WORKDIR = YES
  |      MOLCAS_NPROCS = 16
  |      MOLCAS_SOURCE = /home/qcsoftware/OpenMolcas/Molcas_src
  |   MOLCAS_STRUCTURE = 0
  |
   ----------------------------------------------------------------------

++ ---------   Input file   ---------

&GATEWAY
Expert
Basis set
 N.aug-cc-pvtz
 N1  0.0  0.0  1.037
End of Basis
Basis set
X ..... / inline
   0.00   2
    3    3
               0.0288
               0.0144
               0.0072
      1.00000000             0.00000000             0.00000000
      0.00000000             1.00000000             0.00000000
      0.00000000             0.00000000             1.00000000
     3    3
               0.02455
               0.012275
               0.0061375
     1.00000000             0.00000000             0.00000000
     0.00000000             1.00000000             0.00000000
     0.00000000             0.00000000             1.00000000
     3    3
               0.0755
               0.03775
               0.018875
      1.000000E+00           0.000000E+00           0.000000E+00           0.00000000
      0.000000E+00           1.000000E+00           0.000000E+00           0.00000000
      0.000000E+00           0.000000E+00           1.000000E+00           0.00000000
X1  0.000  0.000  0.000
End of basis
Symmetry
x y z

&SEWARD

&SCF

&RASSCF
Inactive = 3 0 0 0 2 0 0 0
Ras2= 0 1 1 0 0 5 5 1
Symmetry = 6
Charge = -1
CIROOT= 10 10 1
SPIN=2

>>> COPY $Project.RasOrb INPORB

&CASPT2
Imaginary = 0.1
Maxiter = 50
XMULtistate = all

&RASSI
HEFF
TRD1

&RASSCF
LUMORB
CIONLY
Inactive = 3 0 0 0 2 0 0 0
Ras2= 0 1 1 0 0 5 5 1
SPIN=1

&CASPT2
Imaginary = 0.1
Maxiter = 50

-- ----------------------------------

--- Start Module: gateway at Sun Jun 20 19:11:06 2021 ---

()()()()()()()()()()()()()()()()()()()()()()()()()()()()()()()()()()()()()()()()()()()()()()()()()()

                                              &GATEWAY

                                   only a single process is used
                       available to each process: 20 GB of memory, 16 threads
                                             pid: 6090
()()()()()()()()()()()()()()()()()()()()()()()()()()()()()()()()()()()()()()()()()()()()()()()()()()

 ###############################################################################
 ###############################################################################
 ###                                                                         ###
 ###                                                                         ###
 ###    WARNING:  EXPERT option is ON!                                       ###
 ###                                                                         ###
 ###                                                                         ###
 ###############################################################################
 ###############################################################################
 GuessOrb option turned off!

++    Symmetry information:
      ---------------------

                    --- Group Generators ---
                    Reflection in the yz-plane  
                    Reflection in the xz-plane  
                    Reflection in the xy-plane  

                    Character Table for D2h

                             E   s(yz) s(xz) C2(z) s(xy) C2(y) C2(x)   i  
                    ag       1     1     1     1     1     1     1     1  
                    b3u      1    -1     1    -1     1    -1     1    -1  x
                    b2u      1     1    -1    -1     1     1    -1    -1  y
                    b1g      1    -1    -1     1     1    -1    -1     1  xy, Rz
                    b1u      1     1     1     1    -1    -1    -1    -1  z
                    b2g      1    -1     1    -1    -1     1    -1     1  xz, Ry
                    b3g      1     1    -1    -1    -1    -1     1     1  yz, Rx
                    au       1    -1    -1     1    -1     1     1    -1  I
--


++    Basis set information:
      ----------------------


      Basis set label: N.AUG-CC-PVTZ.........

      Electronic valence basis set:
      ------------------
      Associated Effective Charge   7.000000 au
      Associated Actual Charge      7.000000 au
      Nuclear Model: Point charge

      Shell  nPrim  nBasis  Cartesian Spherical Contaminant
         s      11       5        X                  
         p       6       4        X                  
         d       3       3                 X         
         f       2       2                 X         


      Basis set label: X...............................................................................

      Electronic valence basis set:
      ------------------
      Associated Effective Charge   0.000000 au
      Associated Actual Charge      0.000000 au
      Nuclear Model: Point charge

      Shell  nPrim  nBasis  Cartesian Spherical Contaminant
         s       3       3        X                  
         p       3       3        X                  
         d       3       3                 X         
--


++    Molecular structure info:
      -------------------------

                    ************************************************ 
                    **** Cartesian Coordinates / Bohr, Angstrom **** 
                    ************************************************ 

     Center  Label                x              y              z                     x              y              z
        1      N1               0.000000       0.000000       1.037000              0.000000       0.000000       0.548757
        2      N1               0.000000       0.000000      -1.037000              0.000000       0.000000      -0.548757
        3      X1               0.000000       0.000000       0.000000              0.000000       0.000000       0.000000

                    *************************************** 
                    *    InterNuclear Distances / Bohr    * 
                    *************************************** 

               1 N1            2 N1            3 X1    
    1 N1       0.000000
    2 N1       2.074000        0.000000
    3 X1       1.037000        1.037000        0.000000

                    ******************************************* 
                    *    InterNuclear Distances / Angstrom    * 
                    ******************************************* 

               1 N1            2 N1            3 X1    
    1 N1       0.000000
    2 N1       1.097514        0.000000
    3 X1       0.548757        0.548757        0.000000

                    ************************************** 
                    *    Valence Bond Angles / Degree    * 
                    ************************************** 
                          Atom centers                 Phi
                      2 N1       1 N1       3 X1         0.00
                      1 N1       2 N1       3 X1         0.00
                      1 N1       3 X1       2 N1       180.00
--


            Nuclear Potential Energy             23.62584378 au

--- Stop Module: gateway at Sun Jun 20 19:11:06 2021 /rc=_RC_ALL_IS_WELL_ ---
*** files: xmldump
    saved to directory /home/gayverjr/opencap_examples

--- Start Module: seward at Sun Jun 20 19:11:07 2021 ---

()()()()()()()()()()()()()()()()()()()()()()()()()()()()()()()()()()()()()()()()()()()()()()()()()()

                                              &SEWARD

                                   only a single process is used
                       available to each process: 20 GB of memory, 16 threads
                                             pid: 6111
()()()()()()()()()()()()()()()()()()()()()()()()()()()()()()()()()()()()()()()()()()()()()()()()()()

               SEWARD will generate:
                  Multipole Moment integrals up to order  2
                  Kinetic Energy integrals
                  Nuclear Attraction integrals (point charge)
                  One-Electron Hamiltonian integrals
                  Velocity integrals
                  Orbital angular momentum around ( 0.0000  0.0000  0.0000 )
                  Velocity quadrupole around ( 0.0000  0.0000  0.0000 )
                  Two-Electron Repulsion integrals

                   Integrals are discarded if absolute value <: 0.10E-13
                   Integral cutoff threshold is set to       <: 0.10E-15

                    Unitary symmetry adaptation


            Nuclear Potential Energy             23.62584378 au


      Basis set specifications :
      Symmetry species         ag   b3u  b2u  b1g  b1u  b2g  b3g  au 
      Basis functions           28   14   14    8   22   14   14    5


  Input file to MOLDEN was generated!

--- Stop Module: seward at Sun Jun 20 19:11:09 2021 /rc=_RC_ALL_IS_WELL_ ---
*** files: eq.GssOrb eq.guessorb.h5 eq.guessorb.molden xmldump
    saved to directory /home/gayverjr/opencap_examples
--- Module seward spent 2 seconds ---

*** symbolic link created: INPORB -> eq.GssOrb
--- Start Module: scf at Sun Jun 20 19:11:09 2021 ---

()()()()()()()()()()()()()()()()()()()()()()()()()()()()()()()()()()()()()()()()()()()()()()()()()()

                                                &SCF

                                   only a single process is used
                       available to each process: 20 GB of memory, 16 threads
                                             pid: 6142
()()()()()()()()()()()()()()()()()()()()()()()()()()()()()()()()()()()()()()()()()()()()()()()()()()

++    Input section:
      --------------

      Header of the integral files:
      
       Integrals generated by Gateway/Seward, Sun Jun 20 19:11:07 2021


      Cartesian coordinates in Angstrom:
      -----------------------------------------------------
      No.  Label        X            Y            Z        
      -----------------------------------------------------
       1   N1         0.00000000   0.00000000   0.54875677
       2   X1         0.00000000   0.00000000   0.00000000
       3   N1         0.00000000   0.00000000  -0.54875677
      -----------------------------------------------------
      Nuclear repulsion energy =   23.62584378
--

++    Orbital specifications:
      -----------------------

      Symmetry species               1   2   3   4   5   6   7   8
                                    ag b3u b2u b1g b1u b2g b3g  au
      Frozen orbitals                0   0   0   0   0   0   0   0
      Occupied orbitals              3   1   1   0   2   0   0   0
      Secondary orbitals            25  13  13   8  20  14  14   5
      Deleted orbitals               0   0   0   0   0   0   0   0
      Total number of orbitals      28  14  14   8  22  14  14   5
      Number of basis functions     28  14  14   8  22  14  14   5
--

      Molecular charge                           0.000

++    Optimization specifications:
      ----------------------------

      SCF Algorithm: Conventional
      Minimized density differences are used
      Number of density matrices in core                5
      Maximum number of NDDO SCF iterations           400
      Maximum number of HF SCF iterations             400
      Threshold for SCF energy change            0.10E-08
      Threshold for density matrix               0.10E-03
      Threshold for Fock matrix                  0.15E-03
      Threshold for linear dependence            0.10E-08
      Threshold at which DIIS is turned on       0.15E+00
      Threshold at which QNR/C2DIIS is turned on 0.75E-01
      Threshold for Norm(delta) (QNR/C2DIIS)     0.20E-04
      DIIS extrapolation of the SCF procedure
      All orbitals punched on: SCFORB
--

      Input vectors read from INPORB
      Orbital file label: *Guess orbitals


++ Convergence information
                                   SCF        iterations: Energy and convergence statistics

Iter     Tot. SCF        One-elec.       Two-elec.     Energy      Max Dij or  Max Fij      DNorm      TNorm      AccCon     Time
         Energy          Energy          Energy        Change      Delta Norm                                                in Sec.
   1  -108.706104763  -191.924094051    59.592145508   0.00E+00    0.16E+00*   0.18E+00*    0.50E+01   0.89E+02   None         0.
   2  -108.969601384  -195.064611702    62.469166538  -0.26E+00*   0.51E-01*   0.48E-01*    0.31E+01   0.91E+02   EDIIS        0.
   3  -108.983769941  -194.061014244    61.451400522  -0.14E-01*   0.12E-01*   0.12E-01*    0.78E+00   0.90E+02   EDIIS        0.
   4  -108.984779753  -194.319304509    61.708680976  -0.10E-02*   0.48E-02*   0.26E-02*    0.11E+00   0.90E+02   c2DIIS       0.
   5  -108.984860849  -194.256690415    61.645985786  -0.81E-04*   0.14E-02*   0.73E-03*    0.13E-01   0.90E+02   QNRc2DIIS    0.
   6  -108.984866775  -194.257833117    61.647122562  -0.59E-05*   0.67E-03*   0.24E-03*    0.18E-02   0.90E+02   QNRc2DIIS    0.
   7  -108.984867461  -194.256156203    61.645444962  -0.69E-06*   0.31E-04*   0.23E-04     0.18E-03   0.90E+02   QNRc2DIIS    0.
   8  -108.984867465  -194.256607960    61.645896715  -0.37E-08*   0.58E-05    0.33E-05     0.20E-04   0.90E+02   QNRc2DIIS    0.
   9  -108.984867465  -194.256602505    61.645891260  -0.87E-10    0.35E-06    0.13E-06     0.12E-03   0.90E+02   QNRc2DIIS    0.

       Convergence after  9 Macro Iterations
--

 *****************************************************************************************************************************
 *                                                                                                                           *
 *                                             SCF/KS-DFT Program, Final results                                             *
 *                                                                                                                           *
 *                                                                                                                           *
 *                                                                                                                           *
 *                                                       Final Results                                                       *
 *                                                                                                                           *
 *****************************************************************************************************************************

::    Total SCF energy                               -108.9848674646
      One-electron energy                            -194.2566025046
      Two-electron energy                              61.6458912598
      Nuclear repulsion energy                         23.6258437801
      Kinetic energy (interpolated)                   108.7375378311
      Virial theorem                                    1.0022745561
      Total spin, S(S+1)                                0.0000000000
      Total spin, S                                     0.0000000000
      Max non-diagonal density matrix element           0.0000002222
      Max non-diagonal Fock matrix element              0.0000000443


      All orbitals with orbital energies smaller than  E(LUMO)+0.5 are printed

++    Molecular orbitals:
      -------------------

      Title: SCF orbitals

      Molecular orbitals for symmetry species 1: ag 

          Orbital            1         2         3         4         5         6         7         8         9        10    
          Energy          -15.6853   -1.4725   -0.6345    0.0090    0.0416    0.0508    0.0538    0.1184    0.1403    0.1566
          Occ. No.          2.0000    2.0000    2.0000    0.0000    0.0000    0.0000    0.0000    0.0000    0.0000    0.0000

        1 N1     1s         0.9998    0.0239    0.0065   -0.0008    0.0003   -0.0100    0.0000   -0.0048   -0.0181   -0.0000
        2 N1     1s         0.0019   -0.8988    0.3408   -0.0324    0.0721   -0.0463    0.0000   -0.1533   -0.0224   -0.0000
        3 N1     1s         0.0014    0.0049   -0.0013    0.0002    0.0019   -0.0052    0.0000    0.0005   -0.0116   -0.0000
        4 N1     1s         0.0018    0.1792    0.2258    0.0008    0.0640   -0.4626    0.0000    0.0010   -1.0583   -0.0000
        5 N1     1s         0.0027   -0.0170    0.1412   -1.4272   -4.1465   -5.4290   -0.0000  -10.8155  -12.7814   -0.0000
        6 N1     2pz       -0.0072    0.4854    0.9868   -0.0324    0.0717    0.0028   -0.0000   -0.1254   -0.0374   -0.0000
        7 N1     2pz        0.0036   -0.0538   -0.0669    0.0028    0.0028    0.0257   -0.0000    0.0156    0.0647    0.0000
        8 N1     2pz        0.0050   -0.1851   -0.1257   -0.0098   -0.0363   -0.2477    0.0000   -0.0944   -0.5478   -0.0000
        9 N1     2pz        0.0103   -0.0942    0.1769   -1.4521   -4.4762   -8.1564    0.0000  -10.9995  -19.4742   -0.0000
       10 N1     3d0        0.0008   -0.0287   -0.0258   -0.0001   -0.0015   -0.0019    0.0000   -0.0024    0.0014   -0.0000
       11 N1     3d0       -0.0014   -0.0217   -0.0211    0.0013    0.0089    0.0102   -0.0000    0.0088    0.0426    0.0000
       12 N1     3d0       -0.0004    0.0366    0.0106   -0.0321   -0.0660    0.1726   -0.0000   -0.2131    0.3778    0.0000
       13 N1     3d2+       0.0000   -0.0000   -0.0000   -0.0000    0.0000    0.0000   -0.0017    0.0000    0.0000    0.0078
       14 N1     3d2+      -0.0000   -0.0000   -0.0000    0.0000    0.0000   -0.0000    0.0168   -0.0000   -0.0000   -0.0239
       15 N1     3d2+       0.0000    0.0000    0.0000   -0.0000   -0.0000    0.0000   -0.0965    0.0000    0.0000    0.2567
       16 N1     4f0        0.0002    0.0107    0.0082   -0.0007   -0.0016    0.0004    0.0000   -0.0039   -0.0006   -0.0000
       17 N1     4f0        0.0006   -0.0071   -0.0037    0.0026    0.0035   -0.0188    0.0000    0.0153   -0.0436   -0.0000
       18 N1     4f2+      -0.0000    0.0000    0.0000    0.0000   -0.0000   -0.0000    0.0002   -0.0000    0.0000   -0.0008
       19 N1     4f2+      -0.0000   -0.0000    0.0000    0.0000    0.0000   -0.0000    0.0004    0.0000   -0.0000   -0.0026
       20 X1     1s        -0.0037    0.0271   -0.1254    2.7106    8.3586    6.8682    0.0000   19.1475   14.9966    0.0000
       21 X1     1s        -0.0002    0.0030    0.0273   -2.9994   -7.9085   -1.6572    0.0000  -10.3282   -2.9767   -0.0000
       22 X1     1s         0.0002   -0.0015   -0.0054    2.6097    3.4882    0.2149   -0.0000    2.9819    0.4175    0.0000
       23 X1     3d0       -0.0023   -0.0038   -0.0516    0.2032    0.6036    0.6032   -0.0000    1.4952    1.5365    0.0000
       24 X1     3d0       -0.0025    0.0327   -0.0344    0.4982    1.6296    3.6656   -0.0000    3.7257    8.4889    0.0000
       25 X1     3d0        0.0003   -0.0051    0.0013   -0.1153   -0.3901   -1.9902   -0.0000   -0.4797   -2.0241   -0.0000
       26 X1     3d2+      -0.0000   -0.0000   -0.0000    0.0000    0.0000   -0.0000    0.4296   -0.0000   -0.0000   -1.0855
       27 X1     3d2+       0.0000    0.0000    0.0000   -0.0000   -0.0000    0.0000   -0.9758   -0.0000    0.0000    2.6606
       28 X1     3d2+      -0.0000   -0.0000   -0.0000    0.0000    0.0000   -0.0000    1.5672    0.0000   -0.0000   -1.4090

          Orbital           11        12        13    
          Energy            0.2787    0.3045    0.3536
          Occ. No.          0.0000    0.0000    0.0000

        1 N1     1s        -0.0136    0.0334    0.0000
        2 N1     1s         0.0702    0.3564    0.0000
        3 N1     1s        -0.0162    0.0289    0.0000
        4 N1     1s        -1.3151    2.3131    0.0000
        5 N1     1s       -28.8203   -0.2786   -0.0000
        6 N1     2pz        0.1839    0.0430    0.0000
        7 N1     2pz        0.0992   -0.0670   -0.0000
        8 N1     2pz       -0.9362    0.8098    0.0000
        9 N1     2pz      -40.8411    8.7271   -0.0000
       10 N1     3d0       -0.0157    0.0105   -0.0000
       11 N1     3d0        0.0729    0.0184   -0.0000
       12 N1     3d0        0.0643   -1.0248   -0.0000
       13 N1     3d2+       0.0000   -0.0000   -0.0004
       14 N1     3d2+      -0.0000    0.0000    0.1186
       15 N1     3d2+       0.0000   -0.0000   -0.5299
       16 N1     4f0       -0.0050   -0.0111    0.0000
       17 N1     4f0       -0.0387    0.0850    0.0000
       18 N1     4f2+      -0.0000   -0.0000   -0.0001
       19 N1     4f2+      -0.0000    0.0000   -0.0036
       20 X1     1s        35.2257    2.8524    0.0000
       21 X1     1s        -9.1684   -3.8173   -0.0000
       22 X1     1s         1.8881    1.1466    0.0000
       23 X1     3d0        5.0631    0.8181    0.0000
       24 X1     3d0       12.4964   -4.0978    0.0000
       25 X1     3d0       -1.4599    0.8873   -0.0000
       26 X1     3d2+      -0.0000    0.0000    2.9661
       27 X1     3d2+       0.0000   -0.0000   -2.7371
       28 X1     3d2+      -0.0000    0.0000    0.9872

      Molecular orbitals for symmetry species 2: b3u

          Orbital            1         2         3         4         5    
          Energy           -0.6145    0.0118    0.0411    0.1058    0.2623
          Occ. No.          2.0000    0.0000    0.0000    0.0000    0.0000

        1 N1     2px        0.8877   -0.0128   -0.0535   -0.1049    0.2963
        2 N1     2px       -0.0106   -0.0048    0.0127   -0.0276   -0.0879
        3 N1     2px       -0.0526    0.0181   -0.0505    0.1024    0.4247
        4 N1     2px       -0.0035   -0.1409    0.3373   -1.0222   -2.8889
        5 N1     3d1+      -0.0284    0.0006    0.0019    0.0044   -0.0114
        6 N1     3d1+      -0.0518    0.0011    0.0046    0.0093   -0.0227
        7 N1     3d1+      -0.0102    0.0029   -0.0060    0.0172    0.0153
        8 N1     4f1+       0.0115    0.0000   -0.0013   -0.0004    0.0080
        9 N1     4f1+       0.0013   -0.0007    0.0016   -0.0042   -0.0056
       10 N1     4f3+      -0.0000   -0.0000    0.0000   -0.0000    0.0000
       11 N1     4f3+       0.0000    0.0000   -0.0000    0.0000   -0.0000
       12 X1     2px        0.0237    0.6302   -1.7010    4.6366    5.2563
       13 X1     2px       -0.0161   -1.3465    3.6350   -4.2882   -3.2098
       14 X1     2px        0.0053    1.7965   -1.9506    1.5053    0.9613

      Molecular orbitals for symmetry species 3: b2u

          Orbital            1         2         3         4         5    
          Energy           -0.6145    0.0118    0.0411    0.1058    0.2623
          Occ. No.          2.0000    0.0000    0.0000    0.0000    0.0000

        1 N1     2py        0.8877   -0.0128   -0.0535   -0.1049    0.2963
        2 N1     2py       -0.0106   -0.0048    0.0127   -0.0276   -0.0879
        3 N1     2py       -0.0526    0.0181   -0.0505    0.1024    0.4247
        4 N1     2py       -0.0035   -0.1409    0.3373   -1.0222   -2.8889
        5 N1     3d1-      -0.0284    0.0006    0.0019    0.0044   -0.0114
        6 N1     3d1-      -0.0518    0.0011    0.0046    0.0093   -0.0227
        7 N1     3d1-      -0.0102    0.0029   -0.0060    0.0172    0.0153
        8 N1     4f3-       0.0000    0.0000   -0.0000    0.0000   -0.0000
        9 N1     4f3-      -0.0000   -0.0000    0.0000   -0.0000    0.0000
       10 N1     4f1-       0.0115    0.0000   -0.0013   -0.0004    0.0080
       11 N1     4f1-       0.0013   -0.0007    0.0016   -0.0042   -0.0056
       12 X1     2py        0.0237    0.6302   -1.7010    4.6366    5.2563
       13 X1     2py       -0.0161   -1.3465    3.6350   -4.2882   -3.2098
       14 X1     2py        0.0053    1.7965   -1.9506    1.5053    0.9613

      Molecular orbitals for symmetry species 4: b1g

          Orbital            1         2         3    
          Energy            0.0538    0.1566    0.3536
          Occ. No.          0.0000    0.0000    0.0000

        1 N1     3d2-      -0.0017    0.0078   -0.0004
        2 N1     3d2-       0.0168   -0.0239    0.1186
        3 N1     3d2-      -0.0965    0.2567   -0.5299
        4 N1     4f2-       0.0002   -0.0008   -0.0001
        5 N1     4f2-       0.0004   -0.0026   -0.0036
        6 X1     3d2-       0.4296   -1.0855    2.9661
        7 X1     3d2-      -0.9758    2.6606   -2.7371
        8 X1     3d2-       1.5672   -1.4090    0.9872

      Molecular orbitals for symmetry species 5: b1u

          Orbital            1         2         3         4         5         6         7    
          Energy          -15.6817   -0.7795    0.0119    0.0415    0.1044    0.2027    0.3305
          Occ. No.          2.0000    2.0000    0.0000    0.0000    0.0000    0.0000    0.0000

        1 N1     1s         0.9994    0.0062   -0.0008   -0.0004   -0.0045    0.0064    0.0098
        2 N1     1s        -0.0015    0.9299   -0.0163    0.0450   -0.1168    0.1600   -0.2152
        3 N1     1s         0.0008    0.0002    0.0002    0.0016   -0.0013   -0.0151   -0.0456
        4 N1     1s         0.0310    0.3152    0.1198    0.2979    1.4455   10.0373   15.2159
        5 N1     1s         0.0113    0.0758    1.5470    3.8012   13.2440   57.8396   60.0542
        6 N1     2pz       -0.0044    0.4555   -0.0049    0.0199   -0.0342    0.0761   -0.0564
        7 N1     2pz        0.0008   -0.0315   -0.0033   -0.0068   -0.0472   -0.3350   -0.5307
        8 N1     2pz       -0.0123   -0.1640   -0.0640   -0.1336   -0.8234   -5.7218   -9.3527
        9 N1     2pz       -0.0026   -0.0101   -0.6924   -1.6893   -5.6581  -19.5735  -15.0036
       10 N1     3d0        0.0010   -0.0044    0.0003   -0.0004    0.0023   -0.0007    0.0047
       11 N1     3d0        0.0013   -0.0016    0.0010   -0.0031    0.0287    0.2297    0.4539
       12 N1     3d0        0.0023    0.0198    0.0283    0.0647    0.2599    1.3070    1.7529
       13 N1     3d2+       0.0000   -0.0000   -0.0000    0.0000   -0.0000   -0.0000   -0.0000
       14 N1     3d2+      -0.0000    0.0000   -0.0000    0.0000    0.0000    0.0000    0.0000
       15 N1     3d2+      -0.0000   -0.0000    0.0000   -0.0000    0.0000    0.0000    0.0000
       16 N1     4f0       -0.0007   -0.0015    0.0003    0.0009   -0.0000   -0.0132   -0.0325
       17 N1     4f0       -0.0000    0.0003   -0.0031   -0.0066   -0.0218   -0.0653   -0.0568
       18 N1     4f2+      -0.0000   -0.0000    0.0000   -0.0000    0.0000    0.0000    0.0000
       19 N1     4f2+       0.0000   -0.0000   -0.0000    0.0000   -0.0000   -0.0000   -0.0000
       20 X1     2pz        0.0005    0.0063    0.9763    2.5932    7.0861    9.9344    2.1554
       21 X1     2pz       -0.0001   -0.0040   -1.5674   -4.0951   -5.1402   -3.8983    0.3293
       22 X1     2pz        0.0000    0.0013    1.8785    2.0548    1.6618    0.9371   -0.2424

      Molecular orbitals for symmetry species 6: b2g

          Orbital            1         2         3         4    
          Energy            0.0493    0.1189    0.1730    0.3156
          Occ. No.          0.0000    0.0000    0.0000    0.0000

        1 N1     2px        0.0549    0.4731   -0.6572   -0.4632
        2 N1     2px        0.0125   -0.0166   -0.0237    0.0186
        3 N1     2px        0.5238   -0.5585   -1.3004    1.7392
        4 N1     2px       12.1917  -18.6690  -30.0803   58.2658
        5 N1     3d1+       0.0033    0.0055   -0.0159    0.0040
        6 N1     3d1+      -0.0422    0.0969    0.0624   -0.2192
        7 N1     3d1+      -0.1929    0.2675    0.3289   -0.3772
        8 N1     4f1+       0.0007   -0.0051    0.0014    0.0134
        9 N1     4f1+       0.0289   -0.0467   -0.0505    0.1023
       10 N1     4f3+      -0.0000    0.0000    0.0000   -0.0000
       11 N1     4f3+       0.0000   -0.0000   -0.0000    0.0000
       12 X1     3d1+      -0.8184    1.3687    2.0532   -5.5915
       13 X1     3d1+      -4.2552    6.6295    9.4746  -14.6439
       14 X1     3d1+       2.0912   -1.6772   -1.7747    1.8044

      Molecular orbitals for symmetry species 7: b3g

          Orbital            1         2         3         4    
          Energy            0.0493    0.1189    0.1730    0.3156
          Occ. No.          0.0000    0.0000    0.0000    0.0000

        1 N1     2py        0.0549    0.4731   -0.6572   -0.4632
        2 N1     2py        0.0125   -0.0166   -0.0237    0.0186
        3 N1     2py        0.5238   -0.5585   -1.3004    1.7392
        4 N1     2py       12.1917  -18.6690  -30.0803   58.2658
        5 N1     3d1-       0.0033    0.0055   -0.0159    0.0040
        6 N1     3d1-      -0.0422    0.0969    0.0624   -0.2192
        7 N1     3d1-      -0.1929    0.2675    0.3289   -0.3772
        8 N1     4f3-       0.0000   -0.0000   -0.0000    0.0000
        9 N1     4f3-      -0.0000    0.0000    0.0000   -0.0000
       10 N1     4f1-       0.0007   -0.0051    0.0014    0.0134
       11 N1     4f1-       0.0289   -0.0467   -0.0505    0.1023
       12 X1     3d1-      -0.8184    1.3687    2.0532   -5.5915
       13 X1     3d1-      -4.2552    6.6295    9.4746  -14.6439
       14 X1     3d1-       2.0912   -1.6772   -1.7747    1.8044
--


++    Molecular charges:
      ------------------

      Mulliken charges per centre and basis function type
      ---------------------------------------------------

                N1      X1    
      1s       4.0417 -0.1005
      2px      0.9590  0.0069
      2pz      1.0231  0.0023
      2py      0.9590  0.0069
      3d2+    -0.0000 -0.0000
      3d1+     0.0346  0.0000
      3d0      0.0011 -0.0371
      3d1-     0.0346  0.0000
      3d2-     0.0000  0.0000
      4f3+     0.0000  0.0000
      4f2+     0.0000  0.0000
      4f1+     0.0030  0.0000
      4f0      0.0018  0.0000
      4f1-     0.0030  0.0000
      4f2-     0.0000  0.0000
      4f3-     0.0000  0.0000
      Total    7.0607 -0.1215

      N-E     -0.0607  0.1215

      Total electronic charge=   14.000000

      Total            charge=   -0.000000
--


++    Molecular properties:
      ---------------------

      Charge (e):
                      =   -0.0000
      Dipole Moment (Debye):
      Origin of the operator (Ang)=    0.0000    0.0000    0.0000
                   X=  0.0000E+00               Y=  0.0000E+00               Z=  0.0000E+00           Total=  0.0000E+00
      Quadrupole Moment (Debye*Ang):
      Origin of the operator (Ang)=    0.0000    0.0000    0.0000
                  XX= -1.0396E+01              XY=  0.0000E+00              XZ=  0.0000E+00              YY= -1.0396E+01
                  YZ=  0.0000E+00              ZZ= -1.1646E+01
      In traceless form (Debye*Ang)
                  XX=  6.2522E-01              XY=  0.0000E+00              XZ=  0.0000E+00              YY=  6.2522E-01
                  YZ=  0.0000E+00              ZZ= -1.2504E+00
--


  Input file to MOLDEN was generated!

 ###############################################################################
 ###############################################################################
 ###                                                                         ###
 ###                                                                         ###
 ###    WARNING: RunFile label nBas                                          ###
 ###    was used       71 times                                              ###
 ###                                                                         ###
 ###                                                                         ###
 ###############################################################################
 ###############################################################################
--- Stop Module: scf at Sun Jun 20 19:11:10 2021 /rc=_RC_ALL_IS_WELL_ ---
*** files: eq.scf.molden eq.ScfOrb eq.scf.h5 xmldump
    saved to directory /home/gayverjr/opencap_examples

*** symbolic link created: INPORB -> eq.ScfOrb
--- Start Module: rasscf at Sun Jun 20 19:11:10 2021 ---

()()()()()()()()()()()()()()()()()()()()()()()()()()()()()()()()()()()()()()()()()()()()()()()()()()

                                              &RASSCF

                                   only a single process is used
                       available to each process: 20 GB of memory, 16 threads
                                             pid: 6182
()()()()()()()()()()()()()()()()()()()()()()()()()()()()()()()()()()()()()()()()()()()()()()()()()()


      Header of the ONEINT file:
      --------------------------
      
      Integrals generated by Gateway/Seward, Sun Jun 20 19:11:07 2021


      OrdInt status: non-squared


      Cartesian coordinates in Angstrom:
      -----------------------------------------------------
      No.  Label        X            Y            Z        
      -----------------------------------------------------
       1   N1         0.00000000   0.00000000   0.54875677
       2   X1         0.00000000   0.00000000   0.00000000
       3   N1         0.00000000   0.00000000  -0.54875677
      -----------------------------------------------------
      Nuclear repulsion energy =   23.62584378

++    Wave function specifications:
      -----------------------------

      Number of closed shell electrons          10
      Number of electrons in active shells       5
      Max number of holes in RAS1 space          0
      Max nr of electrons in RAS3 space          0
      Number of inactive orbitals                5
      Number of active orbitals                 13
      Number of secondary orbitals             101
      Spin quantum number                      0.5
      State symmetry                             6
--

++    Orbital specifications:
      -----------------------

      Symmetry species                           1   2   3   4   5   6   7   8
                                                ag b3u b2u b1g b1u b2g b3g  au
      Frozen orbitals                            0   0   0   0   0   0   0   0
      Inactive orbitals                          3   0   0   0   2   0   0   0
      Active orbitals                            0   1   1   0   0   5   5   1
      RAS1 orbitals                              0   0   0   0   0   0   0   0
      RAS2 orbitals                              0   1   1   0   0   5   5   1
      RAS3 orbitals                              0   0   0   0   0   0   0   0
      Secondary orbitals                        25  13  13   8  20   9   9   4
      Deleted orbitals                           0   0   0   0   0   0   0   0
      Number of basis functions                 28  14  14   8  22  14  14   5
--

++    CI expansion specifications:
      ----------------------------

      Number of CSFs                          2560
      Number of determinants                  4140
      Number of root(s) required                10
      Root chosen for geometry opt.             10
      CI roots used                              1     2     3     4     5     6     7     8     9    10
      weights                                0.100 0.100 0.100 0.100 0.100 0.100 0.100 0.100 0.100 0.100
      highest root included in the CI           10
      max. size of the explicit Hamiltonian    200
--

++    Optimization specifications:
      ----------------------------

      RASSCF algorithm: Conventional
      Maximum number of macro iterations       200
      Maximum number of SX iterations          100
      Threshold for RASSCF energy            0.100E-07
      Threshold for max MO rotation          0.100E+00
      Threshold for max BLB element          0.100E-03
      Level shift parameter                  0.500E+00
      Make Quasi-Newton update
--

      Orbitals from runfile: scf orbitals
      The MO-coefficients are taken from scf orbitals on runfile

      Total molecular charge   -1.00

      ************************************************************************************************************************
      *                                                                                                                      *
      *                                            Wave function control section                                             *
      *                                                                                                                      *
      ************************************************************************************************************************


                                         RASSCF iterations: Energy and convergence statistics
                                         ----------------------------------------------------

      Iter CI   SX   CI       RASSCF       Energy    max ROT     max BLB   max BLB  Level Ln srch  Step   QN   Walltime
          iter iter root      energy       change     param      element    value   shift minimum  type update hh:mm:ss
 Nr of preliminary CI iterations:  12
        1   1   26    0  -108.56242631    0.00E+00  -0.25E+00*   2  11 5 -0.52E-01*  0.33   0.00    SX    NO    0:00:02
        2   4   31    0  -108.58556045   -0.23E-01* -0.20E+00*   2  11 5 -0.18E-01*  0.32   0.00    SX    NO    0:00:01
        3   3   36    0  -108.58781699   -0.23E-02*  0.25E+00*   2  11 5 -0.77E-02*  0.31   0.00    SX    NO    0:00:00
        4   9   34    0  -108.58843427   -0.62E-03*  0.17E+00*   2  11 5 -0.29E-02*  0.31   0.00    SX    NO    0:00:01
        5   4   32    0  -108.58869220   -0.26E-03*  0.13E+00*   3   8 1 -0.16E-02*  0.31   2.33    LS   YES    0:00:01
        6   5   32    0  -108.58881075   -0.12E-03* -0.90E-01    3   7 7 -0.10E-02*  0.31   1.92    LS   YES    0:00:01
        7   5   32    0  -108.58884610   -0.35E-04*  0.42E-01    2  11 5  0.11E-02*  0.31   1.49    QN   YES    0:00:01
        8  15   32    0  -108.58888659   -0.40E-04*  0.47E-01    2  11 5  0.92E-03*  0.31   2.37    LS   YES    0:00:02
        9   5   32    0  -108.58890765   -0.21E-04*  0.50E-01    3   8 1  0.79E-03*  0.31   1.36    QN   YES    0:00:01
       10   5   31    0  -108.58892121   -0.14E-04* -0.44E-01    3   8 1  0.48E-03*  0.31   2.01    LS   YES    0:00:01
       11   8   32    0  -108.58892518   -0.40E-05* -0.16E-01    2  11 5 -0.40E-03*  0.31   1.02    QN   YES    0:00:01
       12   6   31    0  -108.58893083   -0.56E-05*  0.64E-01    2  11 5 -0.30E-03*  0.31   2.50    QN   YES    0:00:01
       13  12   32    0  -108.58895335   -0.23E-04* -0.42E-01    3   8 1 -0.69E-03*  0.31   1.71    QN   YES    0:00:02
       14   6   32    0  -108.58897152   -0.18E-04* -0.67E-01    3   8 1 -0.11E-02*  0.31   2.25    QN   YES    0:00:01
       15  13   30    0  -108.58900012   -0.29E-04* -0.86E-01    3   8 1 -0.14E-02*  0.31   2.13    QN   YES    0:00:02
       16  14   32    0  -108.58903715   -0.37E-04*  0.89E-01    3   8 1 -0.14E-02*  0.31   2.39    QN   YES    0:00:02
       17  13   32    0  -108.58907872   -0.42E-04*  0.82E-01    3   8 1 -0.11E-02*  0.31   2.50    LS   YES    0:00:02
       18  13   31    0  -108.58910157   -0.23E-04*  0.57E-01    3   8 1 -0.80E-03*  0.31   2.33    QN   YES    0:00:02
       19  12   32    0  -108.58912586   -0.24E-04*  0.53E-01    2  11 5  0.48E-03*  0.31   2.27    LS   YES    0:00:01
       20   9   31    0  -108.58913600   -0.10E-04* -0.30E-01    3  12 7 -0.26E-03*  0.31   1.39    QN   YES    0:00:01
       21   6   31    0  -108.58914382   -0.78E-05* -0.39E-01    3  12 7 -0.24E-03*  0.31   2.50    LS   YES    0:00:01
       22   6   31    0  -108.58914867   -0.48E-05* -0.21E-01    3   8 1  0.37E-03*  0.31   1.35    QN   YES    0:00:01
       23   9   31    0  -108.58915545   -0.68E-05*  0.72E-01    3   8 1  0.27E-03*  0.31   2.50    QN   YES    0:00:01
       24  15   32    0  -108.58918801   -0.33E-04*  0.97E-01    3  11 7  0.50E-03*  0.31   2.11    QN   YES    0:00:02
       25   9   32    0  -108.58922581   -0.38E-04* -0.83E-01    3  11 7  0.13E-02*  0.31   1.33    QN   YES    0:00:02
       26   6   33    0  -108.58925755   -0.32E-04* -0.13E+00*   3  11 7  0.16E-02*  0.31   2.16    QN   YES    0:00:01
       27   9   31    0  -108.58931595   -0.58E-04*  0.12E+00*   3   8 1 -0.13E-02*  0.31   2.50    LS   YES    0:00:01
       28   7   31    0  -108.58934732   -0.31E-04* -0.11E+00*   3   8 1 -0.15E-02*  0.31   2.01    QN   YES    0:00:01
       29   9   31    0  -108.58938781   -0.40E-04* -0.11E+00*   3   8 1 -0.11E-02*  0.31   2.50    LS   YES    0:00:01
       30   8   31    0  -108.58940942   -0.22E-04* -0.70E-01    3   8 1 -0.75E-03*  0.31   1.79    QN   YES    0:00:01
       31   7   30    0  -108.58942851   -0.19E-04* -0.67E-01    2  12 7 -0.42E-03*  0.31   2.21    LS   YES    0:00:01
       32   6   31    0  -108.58943615   -0.76E-05*  0.34E-01    3   8 1  0.33E-03*  0.31   1.26    QN   YES    0:00:01
       33  14   31    0  -108.58944383   -0.77E-05* -0.42E-01    3   8 1  0.37E-03*  0.31   2.50    LS   YES    0:00:02
       34  16   31    0  -108.58944868   -0.48E-05* -0.28E-01    3   8 1  0.42E-03*  0.31   1.44    QN   YES    0:00:02
       35   9   31    0  -108.58945354   -0.49E-05*  0.28E-01    3   8 1  0.23E-03*  0.31   2.50    QN   YES    0:00:01
       36  11   31    0  -108.58946231   -0.88E-05* -0.25E-01    3   8 1 -0.20E-03*  0.31   1.68    QN   YES    0:00:02
       37  13   31    0  -108.58946876   -0.65E-05* -0.43E-01    3   8 1 -0.41E-03*  0.31   2.05    QN   YES    0:00:02
       38  15   30    0  -108.58947573   -0.70E-05* -0.48E-01    3   8 1 -0.46E-03*  0.31   1.96    QN   YES    0:00:02
       39  15   30    0  -108.58948234   -0.66E-05* -0.43E-01    3   8 1 -0.32E-03*  0.31   1.93    QN   YES    0:00:02
       40  11   29    0  -108.58948868   -0.63E-05* -0.28E-01    3  12 7 -0.21E-03*  0.31   1.85    QN   YES    0:00:01
       41  13   29    0  -108.58949431   -0.56E-05*  0.27E-01    3   8 1  0.21E-03*  0.31   1.81    QN   YES    0:00:02
       42   8   29    0  -108.58949887   -0.46E-05* -0.26E-01    3   8 1  0.34E-03*  0.31   1.92    QN   YES    0:00:01
       43   8   29    0  -108.58950312   -0.43E-05* -0.24E-01    3   8 1  0.29E-03*  0.31   2.16    QN   YES    0:00:01
       44  14   29    0  -108.58950859   -0.55E-05* -0.23E-01    2  12 7 -0.24E-03*  0.31   2.33    QN   YES    0:00:02
       45  12   30    0  -108.58951675   -0.82E-05*  0.32E-01    2  12 7 -0.35E-03*  0.31   2.22    QN   YES    0:00:02
       46  13   31    0  -108.58952766   -0.11E-04* -0.35E-01    3   8 1 -0.54E-03*  0.31   2.01    QN   YES    0:00:02
       47  12   32    0  -108.58953950   -0.12E-04*  0.31E-01    3   8 1 -0.72E-03*  0.31   1.97    QN   YES    0:00:02
       48   9   31    0  -108.58955045   -0.11E-04*  0.23E-01    3   8 1 -0.62E-03*  0.31   1.95    QN   YES    0:00:01
       49   9   32    0  -108.58955899   -0.85E-05*  0.20E-01    3   8 1 -0.28E-03*  0.31   1.91    QN   YES    0:00:01
       50   7   31    0  -108.58956634   -0.73E-05* -0.28E-01    3  12 7 -0.19E-03*  0.31   2.26    QN   YES    0:00:01
       51   9   32    0  -108.58957634   -0.10E-04*  0.48E-01    3   8 1  0.61E-03*  0.31   2.50    QN   YES    0:00:01
       52   9   31    0  -108.58959203   -0.16E-04*  0.55E-01    3   8 1  0.11E-02*  0.31   2.50    LS   YES    0:00:01
       53   8   31    0  -108.58960061   -0.86E-05*  0.34E-01    3   8 1  0.16E-02*  0.31   1.38    QN   YES    0:00:01
       54   9   30    0  -108.58961495   -0.14E-04*  0.41E-01    3   8 1  0.14E-02*  0.31   2.50    LS   YES    0:00:01
       55   6   31    0  -108.58962724   -0.12E-04*  0.48E-01    3   8 1  0.12E-02*  0.31   2.50    LS   YES    0:00:01
       56   9   27    0  -108.58963476   -0.75E-05*  0.21E-01    3   8 1  0.99E-03*  0.31   1.57    QN   YES    0:00:01
       57   7   27    0  -108.58964477   -0.10E-04* -0.12E-01    3  11 7  0.36E-03*  0.31   1.58    LS   YES    0:00:01
       58   6   27    0  -108.58964639   -0.16E-05* -0.10E-01    3   8 1 -0.21E-03*  0.31   1.08    QN   YES    0:00:01
       59  13   27    0  -108.58964787   -0.15E-05* -0.13E-01    3   8 1 -0.18E-03*  0.31   2.39    LS   YES    0:00:02
       60   9   26    0  -108.58964870   -0.83E-06*  0.73E-02    3   8 1 -0.14E-03*  0.31   1.16    QN   YES    0:00:01
       61   8   26    0  -108.58964979   -0.11E-05*  0.10E-01    2  11 7  0.15E-03*  0.31   2.50    LS   YES    0:00:01
       62   6   27    0  -108.58965065   -0.86E-06*  0.86E-02    2  11 7  0.17E-03*  0.31   1.56    QN   YES    0:00:01
       63   7   28    0  -108.58965174   -0.11E-05*  0.19E-01    3   8 1  0.13E-03*  0.31   2.50    QN   YES    0:00:01
       64   9   27    0  -108.58965369   -0.20E-05* -0.15E-01    3   8 1  0.17E-03*  0.31   1.73    QN   YES    0:00:01
       65   8   27    0  -108.58965503   -0.13E-05* -0.97E-02    3   5 1 -0.15E-03*  0.31   1.80    QN   YES    0:00:01
       66  11   26    0  -108.58965598   -0.95E-06*  0.55E-02    3  11 7  0.13E-03*  0.31   1.63    QN   YES    0:00:02
       67  16   25    0  -108.58965653   -0.55E-06*  0.39E-02    1  12 7  0.60E-04   0.31   1.69    QN   YES    0:00:02
       68   7   25    0  -108.58965694   -0.41E-06*  0.37E-02    3   8 1 -0.69E-04   0.31   1.89    QN   YES    0:00:01
       69   8   24    0  -108.58965738   -0.44E-06* -0.44E-02    2  11 7  0.89E-04   0.31   2.03    QN   YES    0:00:01
       70   5   26    0  -108.58965794   -0.56E-06* -0.60E-02    2  11 7  0.12E-03*  0.31   2.04    QN   YES    0:00:01
       71   9   26    0  -108.58965864   -0.70E-06* -0.73E-02    1  11 7 -0.11E-03*  0.31   2.00    QN   YES    0:00:01
       72  22   26    0  -108.58965944   -0.80E-06*  0.67E-02    1  12 7 -0.10E-03*  0.31   1.87    QN   YES    0:00:03
       73  12   25    0  -108.58966017   -0.73E-06*  0.45E-02    3   5 1 -0.90E-04   0.31   1.75    QN   YES    0:00:02
       74  11   25    0  -108.58966070   -0.53E-06*  0.34E-02    3  11 7  0.91E-04   0.31   1.69    QN   YES    0:00:02
       75   5   25    0  -108.58966106   -0.36E-06* -0.35E-02    1  11 7  0.99E-04   0.31   1.75    QN   YES    0:00:01
       76   8   26    0  -108.58966137   -0.31E-06* -0.38E-02    1  11 7  0.11E-03*  0.31   1.99    QN   YES    0:00:01
       77  11   24    0  -108.58966175   -0.38E-06*  0.48E-02    1  11 7  0.91E-04   0.31   2.06    QN   YES    0:00:02
       78  17   25    0  -108.58966224   -0.49E-06*  0.47E-02    3   5 1  0.98E-04   0.31   1.87    QN   YES    0:00:02
       79  15   24    0  -108.58966269   -0.45E-06*  0.52E-02    3  11 7 -0.10E-03*  0.31   1.74    QN   YES    0:00:02
       80  11   24    0  -108.58966301   -0.31E-06*  0.38E-02    1  11 7 -0.68E-04   0.31   1.64    QN   YES    0:00:02
       81   6   23    0  -108.58966321   -0.20E-06*  0.34E-02    1  11 7 -0.83E-04   0.31   1.85    QN   YES    0:00:01
       82   6   23    0  -108.58966342   -0.21E-06* -0.42E-02    1  11 7 -0.77E-04   0.31   2.08    QN   YES    0:00:01
       83  10   24    0  -108.58966370   -0.28E-06* -0.57E-02    3  11 7  0.11E-03*  0.31   1.96    QN   YES    0:00:01
       84  11   22    0  -108.58966399   -0.29E-06* -0.42E-02    3  11 7  0.11E-03*  0.31   1.69    QN   YES    0:00:02
       85  10   22    0  -108.58966416   -0.17E-06*  0.18E-02    3  11 7  0.60E-04   0.31   1.50    QN   YES    0:00:01
       86   5   22    0  -108.58966422   -0.63E-07*  0.10E-02    2  12 7  0.12E-04   0.31   1.43    QN   YES    0:00:01
       87   5   21    0  -108.58966425   -0.25E-07* -0.95E-03    2  11 7  0.20E-04   0.31   1.78    QN   YES    0:00:01
       88   3   22    0  -108.58966427   -0.27E-07* -0.17E-02    2  11 7  0.31E-04   0.31   2.10    QN   YES    0:00:00
       89   4   21    0  -108.58966432   -0.44E-07* -0.24E-02    2  11 7  0.35E-04   0.31   2.05    QN   YES    0:00:01
       90   6   22    0  -108.58966438   -0.61E-07* -0.32E-02    2  11 7  0.29E-04   0.31   1.97    QN   YES    0:00:01
       91   5   22    0  -108.58966445   -0.69E-07* -0.25E-02    3   5 1 -0.27E-04   0.31   1.72    QN   YES    0:00:01
       92   3   21    0  -108.58966449   -0.45E-07*  0.99E-03    3   5 1 -0.16E-04   0.31   1.51    QN   YES    0:00:00
       93   4   20    0  -108.58966451   -0.19E-07*  0.55E-03    3  11 7  0.96E-05   0.31   1.48    QN   YES    0:00:01
       94   3   20    0  -108.58966452   -0.98E-08   0.63E-03    2   9 7 -0.79E-05   0.31   1.81    QN   YES    0:00:00
      Convergence after 94 iterations
       95   4   20    0  -108.58966453   -0.12E-07*  0.63E-03    3   5 1  0.12E-04   0.31   1.81    QN   YES    0:00:02

      ************************************************************************************************************************
                                                      Wave function printout:
                       occupation of active orbitals, and spin coupling of open shells (u,d: Spin up or down)
      ************************************************************************************************************************

      Note: transformation to natural orbitals
      has been made, which may change the order of the CSFs.

      printout of CI-coefficients larger than  0.05 for root  1
      energy=    -109.022905
      conf/sym  2 3 66666 77777 8     Coeff  Weight
             1  2 2 u0000 00000 0   0.95742 0.91665
             7  2 2 00u00 00000 0  -0.13826 0.01912
            18  0 2 u0200 00000 0   0.13201 0.01743
           183  u d u0d00 00u00 0  -0.05525 0.00305
           313  u d u0u00 00d00 0  -0.09813 0.00963
           333  u u u0d00 00d00 0  -0.07573 0.00574
           469  2 0 u0000 00200 0   0.12868 0.01656

      printout of CI-coefficients larger than  0.05 for root  2
      energy=    -108.945012
      conf/sym  2 3 66666 77777 8     Coeff  Weight
             1  2 2 u0000 00000 0   0.06864 0.00471
             2  2 2 0u000 00000 0  -0.83993 0.70549
             7  2 2 00u00 00000 0   0.42597 0.18145
            20  0 2 0u200 00000 0  -0.12083 0.01460
            65  2 2 0000u 00000 0   0.21713 0.04715
           323  u d 0uu00 00d00 0   0.08974 0.00805
           338  u u 0ud00 00d00 0   0.06596 0.00435
           521  2 0 0u000 00200 0  -0.11263 0.01268
           625  2 0 00u00 00200 0   0.06018 0.00362

      printout of CI-coefficients larger than  0.05 for root  3
      energy=    -108.874290
      conf/sym  2 3 66666 77777 8     Coeff  Weight
             1  2 2 u0000 00000 0   0.10575 0.01118
             2  2 2 0u000 00000 0   0.24709 0.06105
             7  2 2 00u00 00000 0   0.75124 0.56436
            23  2 2 000u0 00000 0  -0.23058 0.05317
            65  2 2 0000u 00000 0  -0.50904 0.25912
            80  0 2 0020u 00000 0   0.07840 0.00615
           203  u d 00200 00u00 0  -0.06772 0.00459
           343  u u 00200 00d00 0  -0.07352 0.00540
           418  u d 00u0u 00d00 0  -0.05810 0.00338
           625  2 0 00u00 00200 0   0.10781 0.01162
          1197  2 0 0000u 00200 0  -0.06799 0.00462

      printout of CI-coefficients larger than  0.05 for root  4
      energy=    -108.745984
      conf/sym  2 3 66666 77777 8     Coeff  Weight
             1  2 2 u0000 00000 0   0.05149 0.00265
             2  2 2 0u000 00000 0   0.31379 0.09847
             7  2 2 00u00 00000 0   0.39454 0.15566
            23  2 2 000u0 00000 0   0.72274 0.52235
            38  0 2 002u0 00000 0  -0.09821 0.00964
            65  2 2 0000u 00000 0   0.40215 0.16173
            80  0 2 0020u 00000 0  -0.05052 0.00255
           368  u d 00uu0 00d00 0   0.07303 0.00533
           373  u u 00du0 00d00 0  -0.06085 0.00370
           625  2 0 00u00 00200 0   0.05848 0.00342
           833  2 0 000u0 00200 0   0.09702 0.00941
          1197  2 0 0000u 00200 0   0.05434 0.00295

      printout of CI-coefficients larger than  0.05 for root  5
      energy=    -108.523685
      conf/sym  2 3 66666 77777 8     Coeff  Weight
             2  2 2 0u000 00000 0  -0.26600 0.07075
             7  2 2 00u00 00000 0  -0.19397 0.03763
            23  2 2 000u0 00000 0   0.60018 0.36022
            38  0 2 002u0 00000 0  -0.08185 0.00670
            65  2 2 0000u 00000 0  -0.68383 0.46763
            80  0 2 0020u 00000 0   0.09217 0.00850
           368  u d 00uu0 00d00 0   0.06080 0.00370
           373  u u 00du0 00d00 0  -0.05040 0.00254
           418  u d 00u0u 00d00 0  -0.06871 0.00472
           423  u u 00d0u 00d00 0   0.05678 0.00322
           833  2 0 000u0 00200 0   0.08065 0.00650
          1197  2 0 0000u 00200 0  -0.09237 0.00853

      printout of CI-coefficients larger than  0.05 for root  6
      energy=    -108.387165
      conf/sym  2 3 66666 77777 8     Coeff  Weight
           183  u d u0d00 00u00 0   0.16055 0.02578
           188  u u d0d00 00u00 0  -0.10838 0.01175
           313  u d u0u00 00d00 0  -0.06227 0.00388
           318  u u d0u00 00d00 0  -0.14050 0.01974
           341  u u 00200 d0000 0  -0.48011 0.23051
           343  u u 00200 00d00 0   0.09015 0.00813
           621  2 0 00u00 d0u00 0  -0.40145 0.16116
           623  2 0 00u00 u0d00 0  -0.22775 0.05187
           625  2 0 00u00 00200 0   0.08472 0.00718
           647  0 2 00u00 d0u00 0   0.40535 0.16431
           649  0 2 00u00 u0d00 0   0.23075 0.05324
           651  0 2 00u00 00200 0  -0.07887 0.00622
          1913  u u 00000 d0200 0  -0.49271 0.24277

      printout of CI-coefficients larger than  0.05 for root  7
      energy=    -108.386438
      conf/sym  2 3 66666 77777 8     Coeff  Weight
           163  u d 20000 00u00 0   0.05020 0.00252
           183  u d u0d00 00u00 0   0.57966 0.33601
           188  u u d0d00 00u00 0  -0.35798 0.12815
           203  u d 00200 00u00 0  -0.10354 0.01072
           313  u d u0u00 00d00 0  -0.31583 0.09975
           318  u u d0u00 00d00 0  -0.58955 0.34757
           341  u u 00200 d0000 0   0.12621 0.01593
           621  2 0 00u00 d0u00 0   0.10258 0.01052
           623  2 0 00u00 u0d00 0   0.05964 0.00356
           647  0 2 00u00 d0u00 0  -0.11015 0.01213
           649  0 2 00u00 u0d00 0  -0.06347 0.00403
          1913  u u 00000 d0200 0   0.13469 0.01814

      printout of CI-coefficients larger than  0.05 for root  8
      energy=    -108.381387
      conf/sym  2 3 66666 77777 8     Coeff  Weight
             1  2 2 u0000 00000 0  -0.08591 0.00738
            17  2 0 u0200 00000 0  -0.13706 0.01879
            18  0 2 u0200 00000 0   0.35719 0.12758
           183  u d u0d00 00u00 0  -0.20859 0.04351
           188  u u d0d00 00u00 0   0.31244 0.09762
           313  u d u0u00 00d00 0  -0.44247 0.19578
           318  u u d0u00 00d00 0  -0.22844 0.05219
           333  u u u0d00 00d00 0   0.53924 0.29078
           343  u u 00200 00d00 0  -0.05455 0.00298
           469  2 0 u0000 00200 0   0.35722 0.12760
           495  0 2 u0000 00200 0  -0.14197 0.02016

      printout of CI-coefficients larger than  0.05 for root  9
      energy=    -108.316209
      conf/sym  2 3 66666 77777 8     Coeff  Weight
           193  u d 0ud00 00u00 0  -0.09057 0.00820
           198  u u 0dd00 00u00 0   0.06466 0.00418
           328  u u 0du00 00d00 0   0.06805 0.00463
           341  u u 00200 d0000 0   0.50774 0.25780
           343  u u 00200 00d00 0  -0.11297 0.01276
           621  2 0 00u00 d0u00 0   0.40527 0.16425
           623  2 0 00u00 u0d00 0   0.21145 0.04471
           625  2 0 00u00 00200 0  -0.09510 0.00904
           647  0 2 00u00 d0u00 0   0.38458 0.14790
           649  0 2 00u00 u0d00 0   0.23621 0.05580
           651  0 2 00u00 00200 0  -0.07090 0.00503
          1913  u u 00000 d0200 0  -0.51381 0.26400

      printout of CI-coefficients larger than  0.05 for root 10
      energy=    -108.313570
      conf/sym  2 3 66666 77777 8     Coeff  Weight
            17  2 0 u0200 00000 0  -0.23873 0.05699
            18  0 2 u0200 00000 0   0.25053 0.06277
           183  u d u0d00 00u00 0   0.24001 0.05760
           193  u d 0ud00 00u00 0   0.07269 0.00528
           201  u d 00200 u0000 0   0.32911 0.10831
           203  u d 00200 00u00 0  -0.12902 0.01665
           313  u d u0u00 00d00 0   0.44181 0.19519
           328  u u 0du00 00d00 0  -0.06019 0.00362
           469  2 0 u0000 00200 0   0.24923 0.06212
           495  0 2 u0000 00200 0  -0.26564 0.07057
           621  2 0 00u00 d0u00 0  -0.14723 0.02168
           623  2 0 00u00 u0d00 0   0.30232 0.09140
           625  2 0 00u00 00200 0  -0.07383 0.00545
           647  0 2 00u00 d0u00 0   0.19691 0.03877
           649  0 2 00u00 u0d00 0  -0.26650 0.07102
           651  0 2 00u00 00200 0   0.06938 0.00481
          1767  u d 00000 u0200 0   0.33612 0.11297

      Natural orbitals and occupation numbers for root  1
      sym 2:   1.934315
      sym 3:   1.933467
      sym 6:   1.000103   0.000000   0.065380   0.000000   0.000033
      sym 7:   0.000000   0.000023   0.066197   0.000127   0.000200
      sym 8:   0.000155

      Natural orbitals and occupation numbers for root  2
      sym 2:   1.940244
      sym 3:   1.934185
      sym 6:   0.000000   1.003914   0.055539   0.000000   0.000033
      sym 7:   0.000000   0.000028   0.065548   0.000125   0.000220
      sym 8:   0.000162

      Natural orbitals and occupation numbers for root  3
      sym 2:   1.959874
      sym 3:   1.936115
      sym 6:   0.000000   0.000000   1.013716   0.000056   0.025775
      sym 7:   0.000000   0.000039   0.063824   0.000120   0.000292
      sym 8:   0.000189

      Natural orbitals and occupation numbers for root  4
      sym 2:   1.944342
      sym 3:   1.934349
      sym 6:   0.000000   0.000000   0.048400   1.006872   0.000055
      sym 7:   0.000000   0.000039   0.065385   0.000124   0.000264
      sym 8:   0.000171

      Natural orbitals and occupation numbers for root  5
      sym 2:   1.937006
      sym 3:   1.933302
      sym 6:   0.000000   0.000033   0.059934   1.002785   0.000000
      sym 7:   0.000000   0.000041   0.066352   0.000126   0.000257
      sym 8:   0.000162

      Natural orbitals and occupation numbers for root  6
      sym 2:   0.996292
      sym 3:   1.003521
      sym 6:   0.065657   0.000747   0.994119   0.000001   0.000028
      sym 7:   0.889056   0.000035   1.048787   0.000138   0.001619
      sym 8:   0.000001

      Natural orbitals and occupation numbers for root  7
      sym 2:   0.997655
      sym 3:   1.002188
      sym 6:   0.898210   0.000981   1.032891   0.000001   0.000023
      sym 7:   0.064686   0.000019   1.002180   0.000099   0.001067
      sym 8:   0.000001

      Natural orbitals and occupation numbers for root  8
      sym 2:   1.006689
      sym 3:   1.004466
      sym 6:   0.962273   0.000665   1.023963   0.000001   0.000032
      sym 7:   0.002467   0.000041   0.997957   0.000188   0.001196
      sym 8:   0.000062

      Natural orbitals and occupation numbers for root  9
      sym 2:   1.009320
      sym 3:   0.990217
      sym 6:   0.000678   0.021787   1.005643   0.000011   0.001956
      sym 7:   0.887662   0.000177   1.078014   0.000051   0.003976
      sym 8:   0.000508

      Natural orbitals and occupation numbers for root 10
      sym 2:   0.989677
      sym 3:   1.010026
      sym 6:   0.511098   0.012077   0.996241   0.000002   0.000484
      sym 7:   0.454188   0.000047   1.024161   0.000371   0.001624
      sym 8:   0.000004

      ************************************************************************************************************************
      *                                                                                                                      *
      *                                                    Final results                                                     *
      *                                                                                                                      *
      ************************************************************************************************************************


++    Wave function specifications:
      -----------------------------

      Number of closed shell electrons          10
      Number of electrons in active shells       5
      Max number of holes in RAS1 space          0
      Max nr of electrons in RAS3 space          0
      Number of inactive orbitals                5
      Number of active orbitals                 13
      Number of secondary orbitals             101
      Spin quantum number                      0.5
      State symmetry                             6
--

++    Orbital specifications:
      -----------------------

      Symmetry species                           1   2   3   4   5   6   7   8
                                                ag b3u b2u b1g b1u b2g b3g  au
      Frozen orbitals                            0   0   0   0   0   0   0   0
      Inactive orbitals                          3   0   0   0   2   0   0   0
      Active orbitals                            0   1   1   0   0   5   5   1
      RAS1 orbitals                              0   0   0   0   0   0   0   0
      RAS2 orbitals                              0   1   1   0   0   5   5   1
      RAS3 orbitals                              0   0   0   0   0   0   0   0
      Secondary orbitals                        25  13  13   8  20   9   9   4
      Deleted orbitals                           0   0   0   0   0   0   0   0
      Number of basis functions                 28  14  14   8  22  14  14   5
--

++    CI expansion specifications:
      ----------------------------

      Number of CSFs                          2560
      Number of determinants                  4140
      Number of root(s) required                10
      CI roots used                              1     2     3     4     5     6     7     8     9    10
      weights                                0.100 0.100 0.100 0.100 0.100 0.100 0.100 0.100 0.100 0.100
      highest root included in the CI           10
      Root passed to geometry opt.              10
--

++    Final optimization conditions:
      ------------------------------

      Average CI energy                            -108.58966453
      RASSCF energy for state 10                   -108.31357029
      Super-CI energy                                -0.00000000
      RASSCF energy change                            0.00000000
      Max change in MO coefficients               0.213E-01
      Max non-diagonal density matrix element     0.632E-03
      Maximum BLB matrix element                  0.122E-04
      (orbital pair   3,   5 in symmetry   1)
      Norm of electronic gradient            0.128E+00
--


      Final state energy(ies):
      ------------------------

::    RASSCF root number  1 Total energy:   -109.02290550
::    RASSCF root number  2 Total energy:   -108.94501179
::    RASSCF root number  3 Total energy:   -108.87428985
::    RASSCF root number  4 Total energy:   -108.74598408
::    RASSCF root number  5 Total energy:   -108.52368484
::    RASSCF root number  6 Total energy:   -108.38716487
::    RASSCF root number  7 Total energy:   -108.38643775
::    RASSCF root number  8 Total energy:   -108.38138739
::    RASSCF root number  9 Total energy:   -108.31620897
::    RASSCF root number 10 Total energy:   -108.31357029

++    Molecular orbitals:
      -------------------

      Pseudonatural active orbitals and approximate occupation numbers




      Molecular orbitals for symmetry species 1: ag 


      Orbital                 1         2         3         4         5         6         7
      Energy           -15.5057   -1.3358   -0.4778    0.0757    0.1269    0.1329    0.1357
      Occ. No.           2.0000    2.0000    2.0000    0.0000    0.0000    0.0000    0.0000

     1 N1     1s         0.9995    0.0247    0.0064   -0.0012   -0.0017   -0.0123   -0.0047
     2 N1     1s         0.0023   -0.8898    0.3438   -0.0124    0.0450   -0.0492   -0.0277
     3 N1     1s         0.0024    0.0079   -0.0019    0.0010    0.0014   -0.0061   -0.0026
     4 N1     1s         0.0016    0.1800    0.2378    0.0211    0.0188   -0.5577   -0.2255
     5 N1     1s         0.0029   -0.0166    0.1596   -3.1635   -6.1164   -6.1852   -1.5928
     6 N1     2pz       -0.0094    0.5012    0.9599   -0.0113    0.0571   -0.0009   -0.0103
     7 N1     2pz        0.0051   -0.0510   -0.0621    0.0046    0.0073    0.0314    0.0116
     8 N1     2pz        0.0062   -0.1905   -0.1041   -0.0272   -0.0744   -0.2954   -0.1071
     9 N1     2pz        0.0108   -0.0957    0.1931   -3.3408   -6.7711   -9.4519   -2.7979
    10 N1     3d0        0.0009   -0.0314   -0.0290   -0.0006   -0.0024   -0.0016   -0.0003
    11 N1     3d0       -0.0018   -0.0272   -0.0314    0.0050    0.0104    0.0136    0.0039
    12 N1     3d0       -0.0005    0.0369    0.0033   -0.0594   -0.0792    0.2177    0.0976
    13 N1     3d2+       0.0000    0.0001    0.0000    0.0001   -0.0003    0.0009   -0.0024
    14 N1     3d2+       0.0000    0.0003   -0.0001   -0.0004    0.0026   -0.0074    0.0190
    15 N1     3d2+      -0.0000    0.0001   -0.0005    0.0025   -0.0156    0.0455   -0.1173
    16 N1     4f0        0.0003    0.0124    0.0089   -0.0014   -0.0021    0.0005    0.0005
    17 N1     4f0        0.0008   -0.0052   -0.0032    0.0044    0.0040   -0.0233   -0.0098
    18 N1     4f2+       0.0000   -0.0001   -0.0001   -0.0000    0.0000   -0.0001    0.0002
    19 N1     4f2+       0.0000   -0.0001   -0.0002   -0.0000    0.0000   -0.0002    0.0007
    20 X1     1s        -0.0039    0.0265   -0.1338    6.0168   11.3050    7.6287    1.4191
    21 X1     1s        -0.0002    0.0036    0.0287   -5.7411   -8.4581   -1.6545    0.5577
    22 X1     1s         0.0002   -0.0017   -0.0056    3.6895    2.9677    0.1602   -0.3386
    23 X1     3d0       -0.0024   -0.0046   -0.0508    0.4581    0.8750    0.6822    0.1475
    24 X1     3d0       -0.0026    0.0336   -0.0393    1.1744    2.4717    4.2324    1.3301
    25 X1     3d0        0.0003   -0.0053    0.0019   -0.2706   -0.5719   -2.0433   -0.7264
    26 X1     3d2+       0.0000   -0.0000    0.0001   -0.0101    0.0683   -0.1972    0.5090
    27 X1     3d2+      -0.0000   -0.0000   -0.0002    0.0203   -0.1532    0.4381   -1.1302
    28 X1     3d2+       0.0000    0.0000    0.0001   -0.0265    0.2358   -0.6114    1.5567



      Molecular orbitals for symmetry species 2: b3u


      Orbital                 1         2         3
      Energy             0.0000    0.0690    0.1191
      Occ. No.           1.4715    0.0000    0.0000

     1 N1     2px        0.9177    0.0008   -0.0350
     2 N1     2px       -0.0139   -0.0107    0.0188
     3 N1     2px       -0.0728    0.0396   -0.0737
     4 N1     2px       -0.0078   -0.2786    0.5185
     5 N1     3d1+      -0.0265    0.0001    0.0010
     6 N1     3d1+      -0.0428   -0.0002    0.0033
     7 N1     3d1+      -0.0012    0.0060   -0.0113
     8 N1     4f1+       0.0105    0.0005   -0.0014
     9 N1     4f1+      -0.0002   -0.0015    0.0028
    10 N1     4f3+      -0.0003    0.0000    0.0000
    11 N1     4f3+      -0.0007   -0.0000   -0.0000
    12 X1     2px        0.0274    1.2480   -2.4000
    13 X1     2px       -0.0181   -2.4440    3.9271
    14 X1     2px        0.0059    2.3145   -1.6467



      Molecular orbitals for symmetry species 3: b2u


      Orbital                 1         2         3
      Energy             0.0000    0.0680    0.1172
      Occ. No.           1.4682    0.0000    0.0000

     1 N1     2py        0.9185    0.0006   -0.0351
     2 N1     2py       -0.0147   -0.0106    0.0183
     3 N1     2py       -0.0745    0.0392   -0.0729
     4 N1     2py       -0.0069   -0.2761    0.5096
     5 N1     3d1-      -0.0269    0.0001    0.0010
     6 N1     3d1-      -0.0444   -0.0001    0.0035
     7 N1     3d1-      -0.0026    0.0058   -0.0118
     8 N1     4f3-      -0.0003    0.0000    0.0000
     9 N1     4f3-      -0.0007   -0.0000   -0.0000
    10 N1     4f1-       0.0103    0.0005   -0.0014
    11 N1     4f1-      -0.0004   -0.0015    0.0029
    12 X1     2py        0.0262    1.2359   -2.3713
    13 X1     2py       -0.0174   -2.4230    3.9128
    14 X1     2py        0.0057    2.3056   -1.6507



      Molecular orbitals for symmetry species 4: b1g


      Orbital                 1
      Energy             0.1351
      Occ. No.           0.0000

     1 N1     3d2-      -0.0026
     2 N1     3d2-       0.0206
     3 N1     3d2-      -0.1267
     4 N1     4f2-       0.0003
     5 N1     4f2-       0.0007
     6 X1     3d2-       0.5499
     7 X1     3d2-      -1.2212
     8 X1     3d2-       1.6889



      Molecular orbitals for symmetry species 5: b1u


      Orbital                 1         2         3         4
      Energy           -15.5027   -0.6317    0.0694    0.1200
      Occ. No.           2.0000    2.0000    0.0000    0.0000

     1 N1     1s         0.9987    0.0057   -0.0013   -0.0017
     2 N1     1s        -0.0026    0.9279   -0.0075    0.0229
     3 N1     1s         0.0017   -0.0044    0.0010    0.0025
     4 N1     1s         0.0260    0.3647    0.1821    0.1110
     5 N1     1s         0.0082    0.1378    2.8121    4.3304
     6 N1     2pz       -0.0063    0.4285   -0.0001    0.0121
     7 N1     2pz        0.0029   -0.0360   -0.0040    0.0013
     8 N1     2pz       -0.0092   -0.1711   -0.0857   -0.0220
     9 N1     2pz       -0.0019   -0.0199   -1.2838   -2.1195
    10 N1     3d0        0.0009   -0.0069    0.0003   -0.0001
    11 N1     3d0        0.0008   -0.0090   -0.0017   -0.0113
    12 N1     3d0        0.0018    0.0171    0.0495    0.0612
    13 N1     3d2+       0.0000    0.0001   -0.0000    0.0000
    14 N1     3d2+       0.0000    0.0001   -0.0000   -0.0000
    15 N1     3d2+      -0.0000   -0.0002   -0.0001    0.0005
    16 N1     4f0       -0.0008   -0.0005    0.0008    0.0019
    17 N1     4f0        0.0001    0.0012   -0.0059   -0.0087
    18 N1     4f2+       0.0000   -0.0001   -0.0000    0.0000
    19 N1     4f2+      -0.0000   -0.0002    0.0000   -0.0001
    20 X1     2pz        0.0004    0.0066    1.8730    3.4632
    21 X1     2pz       -0.0001   -0.0034   -2.7803   -4.4253
    22 X1     2pz        0.0000    0.0011    2.4157    1.7544



      Molecular orbitals for symmetry species 6: b2g


      Orbital                 1         2         3         4         5
      Energy             0.0000    0.0000    0.0000    0.0000    0.0000
      Occ. No.           0.3503    0.1040    0.6263    0.1000    0.1007

     1 N1     2px       -0.1140   -0.2801   -1.0844    0.0846   -0.3474
     2 N1     2px        0.0115   -0.0058   -0.0186   -0.0249    0.0639
     3 N1     2px        0.4977   -0.5866   -0.3112    1.6040    1.3926
     4 N1     2px       12.1813  -24.4010   -1.2468   84.5174    6.7274
     5 N1     3d1+       0.0015   -0.0055   -0.0084    0.0147   -0.0004
     6 N1     3d1+      -0.0475    0.0764   -0.0073   -0.2630   -0.0458
     7 N1     3d1+      -0.2058   -0.2062    0.0466    1.0267   -1.7543
     8 N1     4f1+       0.0018   -0.0038    0.0070    0.0251   -0.0091
     9 N1     4f1+       0.0312   -0.0183    0.0037    0.0467    0.1152
    10 N1     4f3+      -0.0001    0.0001    0.0001   -0.0000    0.0002
    11 N1     4f3+      -0.0001   -0.0002    0.0001    0.0000   -0.0001
    12 X1     3d1+      -0.8013    2.7911    0.0968  -11.0978    3.1501
    13 X1     3d1+      -4.2986    7.7800    0.3286  -19.5980   -4.9992
    14 X1     3d1+       2.1165   -1.7683   -0.1237    2.2014    1.3720



      Molecular orbitals for symmetry species 7: b3g


      Orbital                 1         2         3         4         5
      Energy             0.0000    0.0000    0.0000    0.0000    0.0000
      Occ. No.           0.2405    0.0001    0.5356    0.0002    0.0025

     1 N1     2py       -0.1341    2.7815   -1.0977   -0.3140   -1.3068
     2 N1     2py        0.0114   -2.6147   -0.0191    0.3219    0.1125
     3 N1     2py        0.4973   -1.2439   -0.3186    0.2360    1.3388
     4 N1     2py       12.0743   -2.1230   -1.4369    0.6289   -0.6962
     5 N1     3d1-       0.0017   -0.0962   -0.0069    0.0057    0.0271
     6 N1     3d1-      -0.0456    0.1643    0.0014   -0.0695    0.3006
     7 N1     3d1-      -0.2009    0.1195    0.0649   -0.0434    0.1225
     8 N1     4f3-      -0.0001   -0.1126    0.0001   -0.7774    0.0108
     9 N1     4f3-      -0.0002    0.0001    0.0001   -0.5233   -0.0054
    10 N1     4f1-       0.0019    0.1855    0.0070   -0.0128    0.0292
    11 N1     4f1-       0.0304    0.1178    0.0013    0.0002   -0.1004
    12 X1     3d1-      -0.7983    0.7867    0.0908   -0.1268    0.2529
    13 X1     3d1-      -4.2540    0.5703    0.4114   -0.1399    0.4094
    14 X1     3d1-       2.1031   -0.2226   -0.1583    0.0243   -0.2629



      Molecular orbitals for symmetry species 8: au 


      Orbital                 1
      Energy             0.0000
      Occ. No.           0.0001

     1 N1     3d2-       0.5522
     2 N1     3d2-       0.8892
     3 N1     3d2-       0.0710
     4 N1     4f2-      -0.0810
     5 N1     4f2-      -0.1725
--

      Von Neumann Entropy (Root  1) =  0.92156


      Mulliken population analysis for root number:  1
      -----------------------------------------------


++    Molecular charges:
      ------------------

      Mulliken charges per centre and basis function type
      ---------------------------------------------------

                N1      X1    
      1s       4.0973 -0.1107
      2px      1.7923  0.0076
      2pz      0.9683  0.0026
      2py      0.9718  0.0072
      3d2+     0.0000 -0.0000
      3d1+     0.0121 -0.6208
      3d0      0.0049 -0.0376
      3d1-     0.0236 -0.0017
      3d2-     0.0001  0.0000
      4f3+     0.0000  0.0000
      4f2+     0.0000  0.0000
      4f1+     0.0021  0.0000
      4f0      0.0024  0.0000
      4f1-     0.0018  0.0000
      4f2-    -0.0000  0.0000
      4f3-     0.0001  0.0000
      Total    7.8768 -0.7535

      N-E     -0.8768  0.7535

      Total electronic charge=   15.000000

      Total            charge=   -1.000000
--



      Expectation values of various properties for root number:  1
      -----------------------------------------------------------


++    Molecular properties:
      ---------------------

      Charge (e):
                      =   -1.0000
      Dipole Moment (Debye):
      Origin of the operator (Ang)=    0.0000    0.0000    0.0000
                   X=  0.0000E+00               Y=  0.0000E+00               Z=  0.0000E+00           Total=  0.0000E+00
      Center of Charge (Ang)
                     X=   -0.00000000               Y=   -0.00000000               Z=   -0.00000000
      Quadrupole Moment (Debye*Ang):
      Origin of the operator (Ang)=    0.0000    0.0000    0.0000
                  XX= -8.7769E+01              XY=  0.0000E+00              XZ=  0.0000E+00              YY= -3.6128E+01
                  YZ=  0.0000E+00              ZZ= -9.2463E+01
      In traceless form (Debye*Ang)
                  XX= -2.3473E+01              XY=  0.0000E+00              XZ=  0.0000E+00              YY=  5.3988E+01
                  YZ=  0.0000E+00              ZZ= -3.0514E+01
--


      Mulliken spin population analysis for root number:  1
      ---------------------------------------------------


++    Molecular charges:
      ------------------

      Mulliken spin population per centre and basis function type
      ---------------------------------------------------

                N1      X1    
      1s       0.0000  0.0000
      2px      0.8178  0.0000
      2pz      0.0000  0.0000
      2py      0.0000 -0.0000
      3d2+     0.0000  0.0000
      3d1+    -0.0160 -0.6029
      3d0      0.0000  0.0000
      3d1-    -0.0000 -0.0000
      3d2-     0.0000  0.0000
      4f3+     0.0000  0.0000
      4f2+     0.0000  0.0000
      4f1+    -0.0003  0.0000
      4f0      0.0000  0.0000
      4f1-     0.0000  0.0000
      4f2-    -0.0000  0.0000
      4f3-     0.0000  0.0000
      Total    0.8015 -0.6029

      Total electronic spin=    1.000000
--


      Von Neumann Entropy (Root  2) =  0.89738


      Mulliken population analysis for root number:  2
      -----------------------------------------------


++    Molecular charges:
      ------------------

      Mulliken charges per centre and basis function type
      ---------------------------------------------------

                N1      X1    
      1s       4.0973 -0.1107
      2px     -2.1109  0.0076
      2pz      0.9683  0.0026
      2py      0.9718  0.0072
      3d2+     0.0000 -0.0000
      3d1+     0.0950  7.0102
      3d0      0.0049 -0.0376
      3d1-     0.0237 -0.0018
      3d2-     0.0001  0.0000
      4f3+     0.0000  0.0000
      4f2+     0.0000  0.0000
      4f1+     0.0068  0.0000
      4f0      0.0024  0.0000
      4f1-     0.0018  0.0000
      4f2-    -0.0000  0.0000
      4f3-     0.0001  0.0000
      Total    4.0612  6.8775

      N-E      2.9388 -6.8775

[...]
     4 N1     1s        -3.3001   -0.9488   63.5475   42.0195    0.1800   13.7731   55.2361   -0.2389   -8.7383   -0.0293
     5 N1     1s        -1.0267   -0.6393   40.4957   15.1505    0.1023   11.4104   24.8214   -0.0556   -1.9072   -0.0120
     6 N1     2pz       -1.2305   -0.0108    0.6231   -0.6253   -0.0061   -1.6334    3.3552    0.0153    0.6400   -0.0031
     7 N1     2pz        0.0670    0.0492   -3.4087   -3.1609   -0.0122   -0.4050   -9.7525    0.0411    1.5619    0.0062
     8 N1     2pz        3.2488    0.4560  -30.1344  -19.3361   -0.0881   -7.1165  -26.1924    0.1148    4.2178    0.0123
     9 N1     2pz       -0.9720    0.1479   -9.4800   -2.4238   -0.0197   -2.4868   -5.6520    0.0008   -0.0378    0.0038
    10 N1     3d0       -0.0432   -0.0009    0.0637    0.0955   -0.0003   -0.1399    0.0385    0.0091    0.3519   -0.0022
    11 N1     3d0       -0.6978   -0.0307    2.0598    2.2507    0.0138    2.0356    3.9072   -0.0353   -1.3831   -0.0004
    12 N1     3d0        0.4589   -0.0877    5.8646    2.1947    0.0128    1.5560    4.2259   -0.0067   -0.2064   -0.0029
    13 N1     3d2+       0.0000    0.0326    0.0009    0.0002   -0.0253   -0.0003   -0.0005    1.1041   -0.0290   -0.6380
    14 N1     3d2+      -0.0005    0.4097    0.0058   -0.0061    2.2527   -0.0069   -0.0000   -1.2709    0.0336    0.7441
    15 N1     3d2+       0.0018   -1.6402   -0.0240   -0.0012    0.8693   -0.0030    0.0003    0.3704   -0.0083    0.4822
    16 N1     4f0        0.0710    0.0016   -0.1161   -0.3027   -0.0003    0.1980   -0.2973    0.0320    1.2762   -0.0014
    17 N1     4f0       -0.2307    0.0166   -1.0863    1.2921   -0.0020   -1.6074   -0.5399   -0.0111   -0.4426    0.0007
    18 N1     4f2+       0.0005   -0.1010   -0.0015   -0.0001    0.0873   -0.0003    0.0012    0.6243   -0.0131    1.2958
    19 N1     4f2+      -0.0019    1.3512    0.0197    0.0051   -2.3260    0.0075   -0.0003    0.2034   -0.0073   -1.0585
    20 X1     2pz        1.3969   -0.0281    1.9280   -0.4890   -0.0001    0.2806    1.0735    0.0112    0.4593   -0.0018
    21 X1     2pz       -0.7361    0.0055   -0.4274    0.4405    0.0015    0.0308   -0.2211   -0.0065   -0.2639    0.0008
    22 X1     2pz        0.2155   -0.0008    0.0768   -0.1441   -0.0006   -0.0251    0.0367    0.0020    0.0801   -0.0002


      Orbital                21        22
      Energy             0.0000    0.0000
      Occ. No.           0.0000    0.0000

     1 N1     1s        -0.4958    7.2936
     2 N1     1s        -0.5890   21.6326
     3 N1     1s         0.7440   -6.0095
     4 N1     1s         8.2328   16.0452
     5 N1     1s         0.8475   11.0587
     6 N1     2pz       -0.5946    1.9790
     7 N1     2pz       -1.6048  -12.4469
     8 N1     2pz       -2.8356  -12.1870
     9 N1     2pz       -0.2224   -2.1283
    10 N1     3d0        1.5423    1.0649
    11 N1     3d0       -0.0100    5.1623
    12 N1     3d0        0.3604    1.6398
    13 N1     3d2+      -0.0009    0.0000
    14 N1     3d2+       0.0012   -0.0001
    15 N1     3d2+       0.0004   -0.0000
    16 N1     4f0       -1.0245   -0.9810
    17 N1     4f0        0.7550   -1.0039
    18 N1     4f2+       0.0011   -0.0000
    19 N1     4f2+      -0.0012    0.0001
    20 X1     2pz        0.1165   -0.0163
    21 X1     2pz       -0.0619    0.1732
    22 X1     2pz        0.0191   -0.0663



      Molecular orbitals for symmetry species 6: b2g


      Orbital                 1         2         3         4         5         6         7         8         9        10
      Energy             0.0000    0.0000    0.0000    0.0000    0.0000    0.0000    0.0000    0.0000    0.0000    0.0000
      Occ. No.           0.3503    0.1040    0.6263    0.1000    0.1007    0.0000    0.0000    0.0000    0.0000    0.0000

     1 N1     2px       -0.1140   -0.2801   -1.0844    0.0846   -0.3474    0.2233    0.7578   -0.0024   -0.0660   -1.0659
     2 N1     2px        0.0115   -0.0058   -0.0186   -0.0249    0.0639    0.3150    0.0232    0.0085    1.1697   -1.4736
     3 N1     2px        0.4977   -0.5866   -0.3112    1.6040    1.3926   11.4023  -13.7525    0.0929    8.5510  -13.5576
     4 N1     2px       12.1813  -24.4010   -1.2468   84.5174    6.7274   15.5748  -40.8951    0.1180    2.4718  -25.2090
     5 N1     3d1+       0.0015   -0.0055   -0.0084    0.0147   -0.0004    0.0185   -0.0672    0.0006    0.0548   -0.0632
     6 N1     3d1+      -0.0475    0.0764   -0.0073   -0.2630   -0.0458   -0.6448    1.2386   -0.0093   -0.7476    4.7956
     7 N1     3d1+      -0.2058   -0.2062    0.0466    1.0267   -1.7543   -7.6150    3.9452   -0.0420   -4.8489    3.9987
     8 N1     4f1+       0.0018   -0.0038    0.0070    0.0251   -0.0091   -0.0213   -0.0518   -0.0003   -0.0735   -0.1361
     9 N1     4f1+       0.0312   -0.0183    0.0037    0.0467    0.1152    0.6149   -0.6870    0.0143    1.8020   -2.0076
    10 N1     4f3+      -0.0001    0.0001    0.0001   -0.0000    0.0002   -0.0001   -0.0005   -0.1274    0.0009   -0.0002
    11 N1     4f3+      -0.0001   -0.0002    0.0001    0.0000   -0.0001    0.0003    0.0037    1.4346   -0.0096    0.0004
    12 X1     3d1+      -0.8013    2.7911    0.0968  -11.0978    3.1501    1.5557    6.7748   -0.0089    1.3100    4.2152
    13 X1     3d1+      -4.2986    7.7800    0.3286  -19.5980   -4.9992   -4.8198    8.2990   -0.0274   -1.0870    5.1129
    14 X1     3d1+       2.1165   -1.7683   -0.1237    2.2014    1.3720    0.7162   -0.7428    0.0032    0.2007   -0.4699


      Orbital                11        12        13        14
      Energy             0.0000    0.0000    0.0000    0.0000
      Occ. No.           0.0000    0.0000    0.0000    0.0000

     1 N1     2px       -3.0283   -0.0033   -2.3827   -1.1628
     2 N1     2px        4.4094    0.0040    5.5539    2.9842
     3 N1     2px        4.6307   -0.0015    9.0570   -0.1352
     4 N1     2px       -2.5479   -0.0190   13.3913   -0.0354
     5 N1     3d1+      -0.2686   -0.0012    0.9755   -0.9703
     6 N1     3d1+      -1.8066    0.0008   -5.4361   -1.8288
     7 N1     3d1+      -2.1247   -0.0010   -2.1332    0.6442
     8 N1     4f1+      -0.5455   -0.0011    0.9112    1.7715
     9 N1     4f1+       1.3006    0.0008    1.5667   -0.0151
    10 N1     4f3+      -0.0019    1.2204    0.0007   -0.0002
    11 N1     4f3+       0.0010   -0.6714   -0.0004    0.0001
    12 X1     3d1+       1.1745    0.0043   -2.3675   -0.3487
    13 X1     3d1+       0.2746    0.0035   -2.6781    0.1362
    14 X1     3d1+       0.0178   -0.0001    0.2414   -0.0353



      Molecular orbitals for symmetry species 7: b3g


      Orbital                 1         2         3         4         5         6         7         8         9        10
      Energy             0.0000    0.0000    0.0000    0.0000    0.0000    0.0000    0.0000    0.0000    0.0000    0.0000
      Occ. No.           0.2405    0.0001    0.5356    0.0002    0.0025    0.0000    0.0000    0.0000    0.0000    0.0000

     1 N1     2py       -0.1341    2.7815   -1.0977   -0.3140   -1.3068    0.0675    0.1705   -0.1078    0.3916    0.9212
     2 N1     2py        0.0114   -2.6147   -0.0191    0.3219    0.1125   -0.0111   -0.0840    0.3502    0.3099   -0.8841
     3 N1     2py        0.4973   -1.2439   -0.3186    0.2360    1.3388    1.6200   -3.1309   10.4222   18.2661    4.8478
     4 N1     2py       12.0743   -2.1230   -1.4369    0.6289   -0.6962   50.3793  -75.3206    2.4366   38.3375   23.8810
     5 N1     3d1-       0.0017   -0.0962   -0.0069    0.0057    0.0271    0.0075   -0.0197    0.0144    0.0892    0.0120
     6 N1     3d1-      -0.0456    0.1643    0.0014   -0.0695    0.3006   -0.1992    0.2522   -0.4966   -2.2205   -2.0736
     7 N1     3d1-      -0.2009    0.1195    0.0649   -0.0434    0.1225   -0.5543   -0.3238   -7.5434   -6.8578    0.4096
     8 N1     4f3-      -0.0001   -0.1126    0.0001   -0.7774    0.0108   -0.0020   -0.0049    0.0031   -0.0116   -0.0174
     9 N1     4f3-      -0.0002    0.0001    0.0001   -0.5233   -0.0054   -0.0007   -0.0047    0.0058    0.0069    0.0387
    10 N1     4f1-       0.0019    0.1855    0.0070   -0.0128    0.0292    0.0120   -0.0112   -0.0338    0.0745    0.1951
    11 N1     4f1-       0.0304    0.1178    0.0013    0.0002   -0.1004    0.1329   -0.0149    0.5193    1.8780   -0.2246
    12 X1     3d1-      -0.7983    0.7867    0.0908   -0.1268    0.2529   -3.6068   10.8598    4.0287   -5.5697   -5.4706
    13 X1     3d1-      -4.2540    0.5703    0.4114   -0.1399    0.4094  -15.3689   16.0471   -2.1796   -8.1929   -4.3901
    14 X1     3d1-       2.1031   -0.2226   -0.1583    0.0243   -0.2629    2.8430   -1.3746    0.4352    0.8977    0.3492


      Orbital                11        12        13        14
      Energy             0.0000    0.0000    0.0000    0.0000
      Occ. No.           0.0000    0.0000    0.0000    0.0000

     1 N1     2py        0.1151   -1.9888   -1.3706   -1.3038
     2 N1     2py       -0.5223    5.0522    4.3341    3.2086
     3 N1     2py       -1.6601   11.4410    8.3171    0.0489
     4 N1     2py       -1.8992    7.8776   14.1432    0.1078
     5 N1     3d1-      -0.0054   -0.0270    1.0207   -0.9571
     6 N1     3d1-       0.6588   -4.6490   -5.1197   -1.9448
     7 N1     3d1-       0.5786   -4.2568   -1.8363    0.5841
     8 N1     4f3-      -0.9363   -0.1060   -0.0074    0.0062
     9 N1     4f3-       1.4831    0.1839    0.0122   -0.0026
    10 N1     4f1-       0.0176   -0.2623    1.0016    1.7723
    11 N1     4f1-      -0.3299    2.5278    1.3791    0.0241
    12 X1     3d1-       0.2030   -0.3286   -2.5841   -0.3727
    13 X1     3d1-       0.4059   -1.8241   -2.7825    0.0969
    14 X1     3d1-      -0.0312    0.1543    0.2326   -0.0242



      Molecular orbitals for symmetry species 8: au 


      Orbital                 1         2         3         4         5
      Energy             0.0000    0.0000    0.0000    0.0000    0.0000
      Occ. No.           0.0001    0.0000    0.0000    0.0000    0.0000

     1 N1     3d2-       0.5522    0.0276   -0.0265    1.1278   -0.2260
     2 N1     3d2-       0.8892    0.3797   -1.3776   -2.0894    0.4634
     3 N1     3d2-       0.0710   -2.4710   -1.5268    0.1769    0.5787
     4 N1     4f2-      -0.0810   -0.0550   -0.1243    0.1977    1.4227
     5 N1     4f2-      -0.1725    0.3877    2.5749    0.8172   -1.0043
--

      Von Neumann Entropy (Root  1) =  0.42238


      Mulliken population analysis for root number:  1
      -----------------------------------------------


++    Molecular charges:
      ------------------

      Mulliken charges per centre and basis function type
      ---------------------------------------------------

                N1      X1    
      1s       4.0973 -0.1107
      2px      0.9745  0.0076
      2pz      0.9683  0.0026
      2py      0.9718  0.0072
      3d2+     0.0000 -0.0000
      3d1+     0.0281 -0.0179
      3d0      0.0049 -0.0376
      3d1-     0.0236 -0.0017
      3d2-     0.0001  0.0000
      4f3+     0.0000  0.0000
      4f2+     0.0000  0.0000
      4f1+     0.0024  0.0000
      4f0      0.0024  0.0000
      4f1-     0.0018  0.0000
      4f2-    -0.0000  0.0000
      4f3-     0.0001  0.0000
      Total    7.0753 -0.1506

      N-E     -0.0753  0.1506

      Total electronic charge=   14.000000

      Total            charge=   -0.000000
--



      Expectation values of various properties for root number:  1
      -----------------------------------------------------------


++    Molecular properties:
      ---------------------

      Charge (e):
                      =   -0.0000
      Dipole Moment (Debye):
      Origin of the operator (Ang)=    0.0000    0.0000    0.0000
                   X=  0.0000E+00               Y=  0.0000E+00               Z=  0.0000E+00           Total=  0.0000E+00
      Quadrupole Moment (Debye*Ang):
      Origin of the operator (Ang)=    0.0000    0.0000    0.0000
                  XX= -1.0296E+01              XY=  0.0000E+00              XZ=  0.0000E+00              YY= -1.0304E+01
                  YZ=  0.0000E+00              ZZ= -1.1868E+01
      In traceless form (Debye*Ang)
                  XX=  7.8968E-01              XY=  0.0000E+00              XZ=  0.0000E+00              YY=  7.7847E-01
                  YZ=  0.0000E+00              ZZ= -1.5682E+00
--


  Input file to MOLDEN was generated!

      Average orbitals are written to the RASORB file
      Natural orbitals for root   1 are written to the RASORB.1 file
      Spin density orbitals for root   1 are written to the SPDORB.1 file

--- Stop Module: rasscf at Sun Jun 20 19:16:05 2021 /rc=_RC_ALL_IS_WELL_ ---
*** files: eq.rasscf.molden eq.RasOrb eq.RasOrb.1 eq.rasscf.h5 eq.SpdOrb.1 xmldump
    saved to directory /home/gayverjr/opencap_examples

--- Start Module: caspt2 at Sun Jun 20 19:16:05 2021 ---

()()()()()()()()()()()()()()()()()()()()()()()()()()()()()()()()()()()()()()()()()()()()()()()()()()

                                              &CASPT2

                                   only a single process is used
                       available to each process: 20 GB of memory, 16 threads
                                             pid: 49126
()()()()()()()()()()()()()()()()()()()()()()()()()()()()()()()()()()()()()()()()()()()()()()()()()()


++    Wave function specifications:
      -----------------------------

      Number of closed shell electrons           6
      Number of electrons in active shells       4
      Max number of holes in RAS1 space          0
      Max number of electrons in RAS3 space      0
      Number of inactive orbitals                3
      Number of active orbitals                 13
      Number of secondary orbitals             101
      Spin quantum number                      0.0
      State symmetry                             1
      Number of CSFs                           568
      Number of root(s) available                1
      Root passed to geometry opt.               1
      A file JOBMIX will be created
      This is a CASSCF or RASSCF reference function
--

++    Orbital specifications:
      -----------------------

      Symmetry species                           1   2   3   4   5   6   7   8
                                                ag b3u b2u b1g b1u b2g b3g  au
      Frozen orbitals                            1   0   0   0   1   0   0   0
      Inactive orbitals                          2   0   0   0   1   0   0   0
      Active orbitals                            0   1   1   0   0   5   5   1
      Secondary orbitals                        25  13  13   8  20   9   9   4
      Deleted orbitals                           0   0   0   0   0   0   0   0
      Number of basis functions                 28  14  14   8  22  14  14   5
--

++    CASPT2 specifications:
      ----------------------

      Type of calculation                        SS-CASPT2
      Fock operator                              state-specific
      IPEA shift                                 0.25
      Real shift                                 0.00
      Imaginary shift                            0.10
      The input orbitals will be transformed to quasi-canonical
--

--------------------------------------------------------------------------------
 Estimated memory requirements:
  POLY3 :                   416468
  RHS:                      427408
  SIGMA :                   362596
  PRPCTL:                        0
 Available workspace:   2249951903

++ CASPT2 computation for group   1

********************************************************************************
 Multi-State initialization phase begins for group   1
--------------------------------------------------------------------------------
********************************************************************************
 Compute H0 matrices for state    1
--------------------------------------------------------------------------------
--------------------------------------------------------------------------------
 H0 matrices have been computed.

********************************************************************************
  CASPT2 EQUATION SOLUTION
--------------------------------------------------------------------------------

  Total nr of CASPT2 parameters:
   Before reduction:      206545
   After  reduction:      142239

 The contributions to the second order correlation energy in atomic units.
-----------------------------------------------------------------------------------------------------------------------------
  IT.      VJTU        VJTI        ATVX        AIVX        VJAI        BVAT        BJAT        BJAI        TOTAL       RNORM  
-----------------------------------------------------------------------------------------------------------------------------
   1    -0.003498   -0.008325   -0.007845   -0.075600   -0.015694   -0.030267   -0.071806   -0.068043   -0.281077    0.017657
   2    -0.003796   -0.008413   -0.007940   -0.075853   -0.015777   -0.030262   -0.071798   -0.068065   -0.281903    0.004017
   3    -0.003817   -0.008413   -0.007953   -0.075893   -0.015776   -0.030268   -0.071817   -0.068070   -0.282006    0.000964
   4    -0.003817   -0.008412   -0.007949   -0.075881   -0.015771   -0.030268   -0.071817   -0.068070   -0.281985    0.000266
   5    -0.003817   -0.008412   -0.007948   -0.075876   -0.015770   -0.030267   -0.071816   -0.068070   -0.281977    0.000075
   6    -0.003816   -0.008413   -0.007948   -0.075877   -0.015770   -0.030267   -0.071816   -0.068070   -0.281979    0.000022
   7    -0.003816   -0.008413   -0.007948   -0.075878   -0.015771   -0.030267   -0.071816   -0.068070   -0.281979    0.000007
   8    -0.003816   -0.008413   -0.007948   -0.075877   -0.015771   -0.030267   -0.071816   -0.068070   -0.281979    0.000002
-----------------------------------------------------------------------------------------------------------------------------

  FINAL CASPT2 RESULT:

      Reference energy:        -109.0723455323
      E2 (Non-variational):      -0.2819791695
      Shift correction:          -0.0002395354
      E2 (Variational):          -0.2822187049
      Total energy:            -109.3545642372
      Residual norm:              0.0000006159
      Reference weight:           0.93250

      Contributions to the CASPT2 correlation energy
      Active & Virtual Only:         -0.0382158993
      One Inactive Excited:          -0.1515098905
      Two Inactive Excited:          -0.0922533796


++ Denominators, etc.
--------------------------------------------------------------------------------------------------------------
 Report on small energy denominators, large coefficients, and large energy contributions.
CASE  SYMM ACTIVE-MIX  NON-ACTIVE INDICES          DENOMINATOR     RHS VALUE       COEFFICIENT     CONTRIBUTION
VJTIP    1  Mu1.0007  In5.002 In5.002               1.78031491     -0.05605305      0.03130932     -0.00175498
VJTIP    1  Mu1.0008  In5.002 In5.002               1.80868977      0.04724243     -0.02624471     -0.00123986
AIVX     5  Mu5.0007  In1.003 Se5.011               2.40823883     -0.07449850      0.03088516     -0.00230090
AIVX     5  Mu5.0009  In1.003 Se5.011               2.44605340     -0.09343679      0.03798344     -0.00354905
BJAIP    1  Se5.011 In1.003 Se5.011 In1.003         3.45038060      0.08746591     -0.02532836     -0.00221537
--

   (Skipping property calculation,
    use PROP keyword to activate)
--

  Total CASPT2 energies:
::    CASPT2 Root  1     Total energy:   -109.35456424

  A NEW JOBIPH FILE NAMED 'JOBMIX' IS PREPARED.
********************************************************************************
--- Stop Module: caspt2 at Sun Jun 20 19:16:07 2021 /rc=_RC_ALL_IS_WELL_ ---
*** files: xmldump
    saved to directory /home/gayverjr/opencap_examples
--- Module caspt2 spent 1 second ---

.##################.
.# Happy landing! #.
.##################.

    Timing: Wall=300.22 User=2227.97 System=75.78
