******************************************************
*** WorkDir and CurrDir are the same, not cleaned! ***
******************************************************
   This run of MOLCAS is using the pymolcas driver

                             OPE
                             OPE          NMOL  CASOP  ENMOLC A   SO
                 OPE        NMOLC        AS  OP EN  MO LC     AS  OP
                OPENM       OL CA        SO  PE NM  OL CA     SOP EN
                OP EN      MO   LC       AS  OP ENMOL  CASO   PENMOL
                OP  EN     MO   LC       AS  OP EN     MO     LC ASO
               OP   E  NMOL  C  AS       OP  EN MO     LC     AS  OP
               OP  E   NMO   LC AS        OPEN  MO     LCASOP EN   M
               O  PEN   MO  LCA  SO
            OPE   NMO   L   CAS    OP
        OPENMOL  CASOP     ENMOL   CASOPE
     OPENMOLCA   SOPENMOLCASOPEN   MOLCASOPE
    OPENMOLCAS   OP           EN   MOL    CAS
    OPENMOLCAS       OP  ENM        O     LCA
    OPENMOLCAS    OPEN  MOLCASO     P  E  NMO
    OPENMOLCAS     OP               E  N  MOL
    OPENMOLCA   SO           PENM   O  L  CAS    OPEN    MO    LCAS
    OPENMOLCA   SOP           ENM   O  L  CAS   OP  EN  MOLC  AS   O
    OPENMOLCA   SOPE           NM      O  LCA   S      OP  EN MO
    OPENMOLC                AS         O  PEN   M      OL  CA  SOPE
    OPENMO        LCASOPE  NMOL        C  ASO   P      ENMOLC     AS
    OPE     NMO      LCA  SO     P     E   NM   OL  CA SO  PE N   MO
          OPENMOLCA            SOPE   NMO        LCAS  O    P  ENMO
     OPENMOLCASOPENMOLCASOPENMOLCASOPENMOLCA
        OPENMOLCASOPENMOLCASOPENMOLCASOPE
            OPENMOLCASOPENMOLCASOPENM
               OPENMOLCASOPENMOLCA        version: v21.06-24-g18de2a7
                   OPENMOLCASO
                       OPE                tag:

 OpenMolcas is free software; you can redistribute it and/or modify it
 under the terms of the GNU Lesser General Public License version 2.1.
 OpenMolcas is distributed in the hope that it will be useful, but it
 is provided "as is" and without any express or implied warranties.
 For more details see the full text of the license in the file
 LICENSE or in <http://www.gnu.org/licenses/>.

                 Copyright (C) The OpenMolcas Authors
           For the author list and the recommended citation,
                   consult the file CONTRIBUTORS.md

           *************************************************
           * pymolcas version py2.03                       *
           *   build a83e8065ae8f29d6450e6902c96ccb58      *
           *   (after the EMIL interpreter by V. Veryazov) *
           *************************************************

configuration info
------------------
Host name: dirac.bu.edu (Linux)
C Compiler ID: GNU
C flags: -std=gnu99 -fopenmp
Fortran Compiler ID: GNU
Fortran flags: -fno-aggressive-loop-optimizations -cpp -fdefault-integer-8 -fopenmp
Definitions: _MOLCAS_;_I8_;_LINUX_
Parallel: OFF (GA=OFF)


   ----------------------------------------------------------------------
  |
  |             Project: xms
  |      Submitted from: /scratch/gayverjr/xms.4270344100
  |        Scratch area: /scratch/gayverjr/xms.4270344100
  |     Save outputs to: /home/gayverjr/col_test/molcas
  |              Molcas: /home/qcsoftware/OpenMolcas/builds/molcas_latest
  |
  | Scratch area is NOT empty
  |
  |      MOLCAS_DRIVER = /home/qcsoftware/bin/pymolcas
  | MOLCAS_NEW_WORKDIR = YES
  |      MOLCAS_NPROCS = 16
  |      MOLCAS_SOURCE = /home/qcsoftware/OpenMolcas/builds/molcas_latest
  |   MOLCAS_STRUCTURE = 0
  |
   ----------------------------------------------------------------------

++ ---------   Input file   ---------

&GATEWAY
Expert
Basis set
 N.aug-cc-pvtz
 N1  0.0  0.0  1.037
End of Basis
Basis set
X ..... / inline
   0.00   2
    3    3
               0.0288
               0.0144
               0.0072
      1.00000000             0.00000000             0.00000000
      0.00000000             1.00000000             0.00000000
      0.00000000             0.00000000             1.00000000
     3    3
               0.02455
               0.012275
               0.0061375
     1.00000000             0.00000000             0.00000000
     0.00000000             1.00000000             0.00000000
     0.00000000             0.00000000             1.00000000
     4    4
               0.0755
               0.03775
               0.018875
               1.0000E-08
      1.000000E+00           0.000000E+00           0.000000E+00       0.000000
      0.000000E+00           1.000000E+00           0.000000E+00       0.000000
      0.000000E+00           0.000000E+00           1.000000E+00       0.0000000
      0.0000000000           0.0000000000           0.0000000000       1.0000000
X1  0.000  0.000  0.000
End of basis
Symmetry
x y z

&SEWARD

&SCF

&RASSCF
Inactive = 3 0 0 0 2 0 0 0
Ras2= 0 1 1 0 0 6 5 0
Symmetry = 6
Charge = -1
CIROOT= 5 5 1
SPIN=2

&RASSI
TRD1

&CASPT2
Imaginary = 0.1
Maxiter = 50
XMULtistate = all

-- ----------------------------------

--- Start Module: gateway at Mon Apr  4 21:38:56 2022 ---

()()()()()()()()()()()()()()()()()()()()()()()()()()()()()()()()()()()()()()()()()()()()()()()()()()

                                              &GATEWAY

                                   only a single process is used
                       available to each process: 20 GB of memory, 16 threads
                                              pid: 537
()()()()()()()()()()()()()()()()()()()()()()()()()()()()()()()()()()()()()()()()()()()()()()()()()()

 ###############################################################################
 ###############################################################################
 ###                                                                         ###
 ###                                                                         ###
 ###    WARNING:  EXPERT option is ON!                                       ###
 ###                                                                         ###
 ###                                                                         ###
 ###############################################################################
 ###############################################################################
 GuessOrb option turned off!

++    Symmetry information:
      ---------------------

                    --- Group Generators ---
                    Reflection in the yz-plane  
                    Reflection in the xz-plane  
                    Reflection in the xy-plane  

                    Character Table for D2h

                             E   s(yz) s(xz) C2(z) s(xy) C2(y) C2(x)   i  
                    ag       1     1     1     1     1     1     1     1  
                    b3u      1    -1     1    -1     1    -1     1    -1  x
                    b2u      1     1    -1    -1     1     1    -1    -1  y
                    b1g      1    -1    -1     1     1    -1    -1     1  xy, Rz
                    b1u      1     1     1     1    -1    -1    -1    -1  z
                    b2g      1    -1     1    -1    -1     1    -1     1  xz, Ry
                    b3g      1     1    -1    -1    -1    -1     1     1  yz, Rx
                    au       1    -1    -1     1    -1     1     1    -1  I
--


++    Basis set information:
      ----------------------


      Basis set label: N.AUG-CC-PVTZ.........

      Electronic valence basis set:
      ------------------
      Associated Effective Charge   7.000000 au
      Associated Actual Charge      7.000000 au
      Nuclear Model: Point charge

      Shell  nPrim  nBasis  Cartesian Spherical Contaminant
         s      11       5        X                  
         p       6       4        X                  
         d       3       3                 X         
         f       2       2                 X         


      Basis set label: X...............................................................................

      Electronic valence basis set:
      ------------------
      Associated Effective Charge   0.000000 au
      Associated Actual Charge      0.000000 au
      Nuclear Model: Point charge

      Shell  nPrim  nBasis  Cartesian Spherical Contaminant
         s       3       3        X                  
         p       3       3        X                  
         d       4       4                 X         
--


++    Molecular structure info:
      -------------------------

                    ************************************************ 
                    **** Cartesian Coordinates / Bohr, Angstrom **** 
                    ************************************************ 

     Center  Label                x              y              z                     x              y              z
        1      N1               0.000000       0.000000       1.037000              0.000000       0.000000       0.548757
        2      N1               0.000000       0.000000      -1.037000              0.000000       0.000000      -0.548757
        3      X1               0.000000       0.000000       0.000000              0.000000       0.000000       0.000000

                    *************************************** 
                    *    InterNuclear Distances / Bohr    * 
                    *************************************** 

               1 N1            2 N1            3 X1    
    1 N1       0.000000
    2 N1       2.074000        0.000000
    3 X1       1.037000        1.037000        0.000000

                    ******************************************* 
                    *    InterNuclear Distances / Angstrom    * 
                    ******************************************* 

               1 N1            2 N1            3 X1    
    1 N1       0.000000
    2 N1       1.097514        0.000000
    3 X1       0.548757        0.548757        0.000000

                    ************************************** 
                    *    Valence Bond Angles / Degree    * 
                    ************************************** 
                          Atom centers                 Phi
                      2 N1       1 N1       3 X1         0.00
                      1 N1       2 N1       3 X1         0.00
                      1 N1       3 X1       2 N1       180.00
--


            Nuclear Potential Energy             23.62584378 au

--- Stop Module: gateway at Mon Apr  4 21:38:57 2022 /rc=_RC_ALL_IS_WELL_ ---
*** files: xmldump
    saved to directory /home/gayverjr/col_test/molcas

--- Start Module: seward at Mon Apr  4 21:38:57 2022 ---

()()()()()()()()()()()()()()()()()()()()()()()()()()()()()()()()()()()()()()()()()()()()()()()()()()

                                              &SEWARD

                                   only a single process is used
                       available to each process: 20 GB of memory, 16 threads
                                              pid: 559
()()()()()()()()()()()()()()()()()()()()()()()()()()()()()()()()()()()()()()()()()()()()()()()()()()

               SEWARD will generate:
                  Multipole Moment integrals up to order  2
                  Kinetic Energy integrals
                  Nuclear Attraction integrals (point charge)
                  One-Electron Hamiltonian integrals
                  Velocity integrals
                  Orbital angular momentum around ( 0.0000  0.0000  0.0000 )
                  Velocity quadrupole around ( 0.0000  0.0000  0.0000 )
                  Two-Electron Repulsion integrals

                   Integrals are discarded if absolute value <: 0.10E-13
                   Integral cutoff threshold is set to       <: 0.10E-15

                    Unitary symmetry adaptation


            Nuclear Potential Energy             23.62584378 au


      Basis set specifications :
      Symmetry species         ag   b3u  b2u  b1g  b1u  b2g  b3g  au 
      Basis functions           30   14   14    9   22   15   15    5


  Input file to MOLDEN was generated!

--- Stop Module: seward at Mon Apr  4 21:39:01 2022 /rc=_RC_ALL_IS_WELL_ ---
*** files: xms.GssOrb xms.guessorb.h5 xms.guessorb.molden xmldump
    saved to directory /home/gayverjr/col_test/molcas
--- Module seward spent 4 seconds ---

*** symbolic link created: INPORB -> xms.GssOrb
--- Start Module: scf at Mon Apr  4 21:39:01 2022 ---

()()()()()()()()()()()()()()()()()()()()()()()()()()()()()()()()()()()()()()()()()()()()()()()()()()

                                                &SCF

                                   only a single process is used
                       available to each process: 20 GB of memory, 16 threads
                                              pid: 602
()()()()()()()()()()()()()()()()()()()()()()()()()()()()()()()()()()()()()()()()()()()()()()()()()()

++    Input section:
      --------------

      Header of the integral files:
      
       Integrals generated by Gateway/Seward, Mon Apr  4 21:38:57 2022


      Cartesian coordinates in Angstrom:
      -----------------------------------------------------
      No.  Label        X            Y            Z        
      -----------------------------------------------------
       1   N1         0.00000000   0.00000000   0.54875677
       2   X1         0.00000000   0.00000000   0.00000000
       3   N1         0.00000000   0.00000000  -0.54875677
      -----------------------------------------------------
      Nuclear repulsion energy =   23.62584378
--

++    Orbital specifications:
      -----------------------

      Symmetry species               1   2   3   4   5   6   7   8
                                    ag b3u b2u b1g b1u b2g b3g  au
      Frozen orbitals                0   0   0   0   0   0   0   0
      Occupied orbitals              3   1   1   0   2   0   0   0
      Secondary orbitals            27  13  13   9  20  15  15   5
      Deleted orbitals               0   0   0   0   0   0   0   0
      Total number of orbitals      30  14  14   9  22  15  15   5
      Number of basis functions     30  14  14   9  22  15  15   5
--

      Molecular charge                           0.000

++    Optimization specifications:
      ----------------------------

      SCF Algorithm: Conventional
      Minimized density differences are used
      Number of density matrices in core                5
      Maximum number of NDDO SCF iterations           400
      Maximum number of HF SCF iterations             400
      Threshold for SCF energy change            0.10E-08
      Threshold for density matrix               0.10E-03
      Threshold for Fock matrix                  0.15E-03
      Threshold for linear dependence            0.10E-08
      Threshold at which DIIS is turned on       0.15E+00
      Threshold at which QNR/C2DIIS is turned on 0.75E-01
      Threshold for Norm(delta) (QNR/C2DIIS)     0.20E-04
      DIIS extrapolation of the SCF procedure
      All orbitals punched on: SCFORB
--

      Input vectors read from INPORB
      Orbital file label: *Guess orbitals


++ Convergence information
                                   SCF        iterations: Energy and convergence statistics

Iter     Tot. SCF        One-elec.       Two-elec.     Energy      Max Dij or  Max Fij      DNorm      TNorm      AccCon     Time
         Energy          Energy          Energy        Change      Delta Norm                                                in Sec.
   1  -108.739180490  -192.739709459    60.374685189   0.00E+00    0.14E+00*   0.17E+00*    0.53E+01   0.90E+02   None         0.
   2  -108.974351625  -194.849566040    62.249370635  -0.24E+00*   0.41E-01*   0.37E-01*    0.30E+01   0.91E+02   EDIIS        0.
   3  -108.984137830  -194.116120637    61.506139026  -0.98E-02*   0.94E-02*   0.11E-01*    0.68E+00   0.90E+02   EDIIS        0.
   4  -108.984808322  -194.303273735    61.692621632  -0.67E-03*   0.40E-02*   0.21E-02*    0.11E+00   0.90E+02   c2DIIS       0.
   5  -108.984862160  -194.254587992    61.643882052  -0.54E-04*   0.12E-02*   0.67E-03*    0.14E-01   0.90E+02   QNRc2DIIS    0.
   6  -108.984866923  -194.258161520    61.647450817  -0.48E-05*   0.60E-03*   0.20E-03*    0.17E-02   0.90E+02   QNRc2DIIS    0.
   7  -108.984867459  -194.256051061    61.645339822  -0.54E-06*   0.41E-04*   0.29E-04     0.16E-03   0.90E+02   QNRc2DIIS    0.
   8  -108.984867465  -194.256603702    61.645892458  -0.59E-08*   0.57E-05    0.31E-05     0.23E-04   0.90E+02   QNRc2DIIS    0.
   9  -108.984867465  -194.256602417    61.645891173  -0.82E-10    0.26E-06    0.10E-06     0.44E-05   0.90E+02   QNRc2DIIS    0.

       Convergence after  9 Macro Iterations
--

 *****************************************************************************************************************************
 *                                                                                                                           *
 *                                             SCF/KS-DFT Program, Final results                                             *
 *                                                                                                                           *
 *                                                                                                                           *
 *                                                                                                                           *
 *                                                       Final Results                                                       *
 *                                                                                                                           *
 *****************************************************************************************************************************

::    Total SCF energy                               -108.9848674646
      One-electron energy                            -194.2566024173
      Two-electron energy                              61.6458911725
      Nuclear repulsion energy                         23.6258437801
      Kinetic energy (interpolated)                   108.7375378741
      Virial theorem                                    1.0022745557
      Total spin, S(S+1)                                0.0000000000
      Total spin, S                                     0.0000000000
      Max non-diagonal density matrix element           0.0000001982
      Max non-diagonal Fock matrix element              0.0000000359


      All orbitals with orbital energies smaller than  E(LUMO)+0.5 are printed

++    Molecular orbitals:
      -------------------

      Title: SCF orbitals

      Molecular orbitals for symmetry species 1: ag 

          Orbital            1         2         3         4         5         6         7         8         9        10    
          Energy          -15.6853   -1.4725   -0.6345    0.0000    0.0000    0.0090    0.0416    0.0508    0.0538    0.1184
          Occ. No.          2.0000    2.0000    2.0000    0.0000    0.0000    0.0000    0.0000    0.0000    0.0000    0.0000

        1 N1     1s         0.9998    0.0239    0.0065    0.0000    0.0000   -0.0008    0.0003   -0.0100    0.0000   -0.0048
        2 N1     1s         0.0019   -0.8988    0.3408    0.0000    0.0000   -0.0324    0.0721   -0.0463    0.0000   -0.1533
        3 N1     1s         0.0014    0.0049   -0.0013   -0.0000    0.0000    0.0002    0.0019   -0.0052    0.0000    0.0005
        4 N1     1s         0.0018    0.1792    0.2258   -0.0000    0.0000    0.0008    0.0640   -0.4626    0.0000    0.0010
        5 N1     1s         0.0027   -0.0170    0.1412   -0.0000    0.0000   -1.4272   -4.1465   -5.4290   -0.0000  -10.8155
        6 N1     2pz       -0.0072    0.4854    0.9868   -0.0000   -0.0000   -0.0324    0.0717    0.0028    0.0000   -0.1254
        7 N1     2pz        0.0036   -0.0538   -0.0669    0.0000   -0.0000    0.0028    0.0028    0.0257   -0.0000    0.0156
        8 N1     2pz        0.0050   -0.1851   -0.1257   -0.0000    0.0000   -0.0098   -0.0363   -0.2477    0.0000   -0.0944
        9 N1     2pz        0.0103   -0.0942    0.1769   -0.0000    0.0000   -1.4521   -4.4762   -8.1564    0.0000  -10.9995
       10 N1     3d0        0.0008   -0.0287   -0.0258   -0.0000    0.0000   -0.0001   -0.0015   -0.0019   -0.0000   -0.0024
       11 N1     3d0       -0.0014   -0.0217   -0.0211    0.0000   -0.0000    0.0013    0.0089    0.0102   -0.0000    0.0088
       12 N1     3d0       -0.0004    0.0366    0.0106    0.0000   -0.0000   -0.0321   -0.0660    0.1726   -0.0000   -0.2131
       13 N1     3d2+       0.0000    0.0000    0.0000    0.0000    0.0000    0.0000    0.0000    0.0000   -0.0017    0.0000
       14 N1     3d2+      -0.0000   -0.0000   -0.0000    0.0000    0.0000   -0.0000   -0.0000   -0.0000    0.0168   -0.0000
       15 N1     3d2+       0.0000    0.0000    0.0000   -0.0000   -0.0000    0.0000    0.0000    0.0000   -0.0965    0.0000
       16 N1     4f0        0.0002    0.0107    0.0082    0.0000   -0.0000   -0.0007   -0.0016    0.0004    0.0000   -0.0039
       17 N1     4f0        0.0006   -0.0071   -0.0037   -0.0000    0.0000    0.0026    0.0035   -0.0188    0.0000    0.0153
       18 N1     4f2+      -0.0000    0.0000    0.0000    0.0000    0.0000    0.0000   -0.0000    0.0000    0.0002   -0.0000
       19 N1     4f2+      -0.0000   -0.0000    0.0000   -0.0000   -0.0000   -0.0000   -0.0000   -0.0000    0.0004    0.0000
       20 X1     1s        -0.0037    0.0271   -0.1254    0.0000   -0.0000    2.7106    8.3586    6.8682    0.0000   19.1475
       21 X1     1s        -0.0002    0.0030    0.0273   -0.0000   -0.0000   -2.9994   -7.9085   -1.6572   -0.0000  -10.3282
       22 X1     1s         0.0002   -0.0015   -0.0054   -0.0000    0.0000    2.6097    3.4882    0.2149    0.0000    2.9819
       23 X1     3d0       -0.0023   -0.0038   -0.0516    0.0000   -0.0000    0.2032    0.6036    0.6032   -0.0000    1.4952
       24 X1     3d0       -0.0025    0.0327   -0.0344    0.0000   -0.0000    0.4982    1.6296    3.6656    0.0000    3.7257
       25 X1     3d0        0.0003   -0.0051    0.0013   -0.0000    0.0000   -0.1153   -0.3901   -1.9902   -0.0000   -0.4797
       26 X1     3d0       -0.0000    0.0000    0.0000   -0.0000    1.0000    0.0000    0.0000    0.0000   -0.0000    0.0000
       27 X1     3d2+      -0.0000   -0.0000   -0.0000    0.0000    0.0000   -0.0000   -0.0000   -0.0000    0.4296   -0.0000
       28 X1     3d2+       0.0000    0.0000    0.0000   -0.0000   -0.0000    0.0000    0.0000    0.0000   -0.9758    0.0000
       29 X1     3d2+      -0.0000   -0.0000   -0.0000    0.0000    0.0000    0.0000   -0.0000   -0.0000    1.5672   -0.0000
       30 X1     3d2+      -0.0000   -0.0000   -0.0000    1.0000    0.0000    0.0000   -0.0000   -0.0000   -0.0000   -0.0000

          Orbital           11        12        13        14        15    
          Energy            0.1403    0.1566    0.2787    0.3045    0.3536
          Occ. No.          0.0000    0.0000    0.0000    0.0000    0.0000

        1 N1     1s        -0.0181   -0.0000   -0.0136    0.0334    0.0000
        2 N1     1s        -0.0224   -0.0000    0.0702    0.3564    0.0000
        3 N1     1s        -0.0116   -0.0000   -0.0162    0.0289    0.0000
        4 N1     1s        -1.0583   -0.0000   -1.3151    2.3131    0.0000
        5 N1     1s       -12.7814   -0.0000  -28.8203   -0.2786   -0.0000
        6 N1     2pz       -0.0374    0.0000    0.1839    0.0430    0.0000
        7 N1     2pz        0.0647    0.0000    0.0992   -0.0670   -0.0000
        8 N1     2pz       -0.5478   -0.0000   -0.9362    0.8098    0.0000
        9 N1     2pz      -19.4742   -0.0000  -40.8411    8.7271   -0.0000
       10 N1     3d0        0.0014   -0.0000   -0.0157    0.0105   -0.0000
       11 N1     3d0        0.0426    0.0000    0.0729    0.0184   -0.0000
       12 N1     3d0        0.3778    0.0000    0.0643   -1.0248   -0.0000
       13 N1     3d2+       0.0000    0.0078    0.0000   -0.0000   -0.0004
       14 N1     3d2+      -0.0000   -0.0239   -0.0000    0.0000    0.1186
       15 N1     3d2+       0.0000    0.2567    0.0000   -0.0000   -0.5299
       16 N1     4f0       -0.0006   -0.0000   -0.0050   -0.0111    0.0000
       17 N1     4f0       -0.0436   -0.0000   -0.0387    0.0850    0.0000
       18 N1     4f2+       0.0000   -0.0008   -0.0000   -0.0000   -0.0001
       19 N1     4f2+      -0.0000   -0.0026   -0.0000    0.0000   -0.0036
       20 X1     1s        14.9966    0.0000   35.2257    2.8524    0.0000
       21 X1     1s        -2.9767    0.0000   -9.1684   -3.8173   -0.0000
       22 X1     1s         0.4175   -0.0000    1.8881    1.1466    0.0000
       23 X1     3d0        1.5365    0.0000    5.0631    0.8181    0.0000
       24 X1     3d0        8.4889    0.0000   12.4964   -4.0978    0.0000
       25 X1     3d0       -2.0241    0.0000   -1.4599    0.8873   -0.0000
       26 X1     3d0        0.0000   -0.0000    0.0000   -0.0000   -0.0000
       27 X1     3d2+      -0.0000   -1.0855   -0.0000    0.0000    2.9661
       28 X1     3d2+       0.0000    2.6606    0.0000   -0.0000   -2.7371
       29 X1     3d2+      -0.0000   -1.4090   -0.0000    0.0000    0.9872
       30 X1     3d2+      -0.0000    0.0000   -0.0000    0.0000   -0.0000

      Molecular orbitals for symmetry species 2: b3u

          Orbital            1         2         3         4         5    
          Energy           -0.6145    0.0118    0.0411    0.1058    0.2623
          Occ. No.          2.0000    0.0000    0.0000    0.0000    0.0000

        1 N1     2px        0.8877   -0.0128   -0.0535   -0.1049    0.2963
        2 N1     2px       -0.0106   -0.0048    0.0127   -0.0276   -0.0879
        3 N1     2px       -0.0526    0.0181   -0.0505    0.1024    0.4247
        4 N1     2px       -0.0035   -0.1409    0.3373   -1.0222   -2.8889
        5 N1     3d1+      -0.0284    0.0006    0.0019    0.0044   -0.0114
        6 N1     3d1+      -0.0518    0.0011    0.0046    0.0093   -0.0227
        7 N1     3d1+      -0.0102    0.0029   -0.0060    0.0172    0.0153
        8 N1     4f1+       0.0115    0.0000   -0.0013   -0.0004    0.0080
        9 N1     4f1+       0.0013   -0.0007    0.0016   -0.0042   -0.0056
       10 N1     4f3+      -0.0000   -0.0000    0.0000   -0.0000    0.0000
       11 N1     4f3+       0.0000    0.0000   -0.0000    0.0000   -0.0000
       12 X1     2px        0.0237    0.6302   -1.7010    4.6366    5.2563
       13 X1     2px       -0.0161   -1.3465    3.6350   -4.2882   -3.2098
       14 X1     2px        0.0053    1.7965   -1.9506    1.5053    0.9613

      Molecular orbitals for symmetry species 3: b2u

          Orbital            1         2         3         4         5    
          Energy           -0.6145    0.0118    0.0411    0.1058    0.2623
          Occ. No.          2.0000    0.0000    0.0000    0.0000    0.0000

        1 N1     2py        0.8877   -0.0128   -0.0535   -0.1049    0.2963
        2 N1     2py       -0.0106   -0.0048    0.0127   -0.0276   -0.0879
        3 N1     2py       -0.0526    0.0181   -0.0505    0.1024    0.4247
        4 N1     2py       -0.0035   -0.1409    0.3373   -1.0222   -2.8889
        5 N1     3d1-      -0.0284    0.0006    0.0019    0.0044   -0.0114
        6 N1     3d1-      -0.0518    0.0011    0.0046    0.0093   -0.0227
        7 N1     3d1-      -0.0102    0.0029   -0.0060    0.0172    0.0153
        8 N1     4f3-       0.0000    0.0000   -0.0000    0.0000   -0.0000
        9 N1     4f3-      -0.0000   -0.0000    0.0000   -0.0000    0.0000
       10 N1     4f1-       0.0115    0.0000   -0.0013   -0.0004    0.0080
       11 N1     4f1-       0.0013   -0.0007    0.0016   -0.0042   -0.0056
       12 X1     2py        0.0237    0.6302   -1.7010    4.6366    5.2563
       13 X1     2py       -0.0161   -1.3465    3.6350   -4.2882   -3.2098
       14 X1     2py        0.0053    1.7965   -1.9506    1.5053    0.9613

      Molecular orbitals for symmetry species 4: b1g

          Orbital            1         2         3         4    
          Energy            0.0000    0.0538    0.1566    0.3536
          Occ. No.          0.0000    0.0000    0.0000    0.0000

        1 N1     3d2-       0.0000   -0.0017    0.0078   -0.0004
        2 N1     3d2-       0.0000    0.0168   -0.0239    0.1186
        3 N1     3d2-      -0.0000   -0.0965    0.2567   -0.5299
        4 N1     4f2-       0.0000    0.0002   -0.0008   -0.0001
        5 N1     4f2-      -0.0000    0.0004   -0.0026   -0.0036
        6 X1     3d2-       0.0000    0.4296   -1.0855    2.9661
        7 X1     3d2-      -0.0000   -0.9758    2.6606   -2.7371
        8 X1     3d2-       0.0000    1.5672   -1.4090    0.9872
        9 X1     3d2-       1.0000   -0.0000    0.0000   -0.0000

      Molecular orbitals for symmetry species 5: b1u

          Orbital            1         2         3         4         5         6         7    
          Energy          -15.6817   -0.7795    0.0119    0.0415    0.1044    0.2027    0.3305
          Occ. No.          2.0000    2.0000    0.0000    0.0000    0.0000    0.0000    0.0000

        1 N1     1s         0.9994    0.0062   -0.0008   -0.0004   -0.0045    0.0064    0.0098
        2 N1     1s        -0.0015    0.9299   -0.0163    0.0450   -0.1168    0.1600   -0.2152
        3 N1     1s         0.0008    0.0002    0.0002    0.0016   -0.0013   -0.0151   -0.0456
        4 N1     1s         0.0310    0.3152    0.1198    0.2979    1.4455   10.0373   15.2159
        5 N1     1s         0.0113    0.0758    1.5470    3.8012   13.2440   57.8396   60.0542
        6 N1     2pz       -0.0044    0.4555   -0.0049    0.0199   -0.0342    0.0761   -0.0564
        7 N1     2pz        0.0008   -0.0315   -0.0033   -0.0068   -0.0472   -0.3350   -0.5307
        8 N1     2pz       -0.0123   -0.1640   -0.0640   -0.1336   -0.8234   -5.7218   -9.3527
        9 N1     2pz       -0.0026   -0.0101   -0.6924   -1.6893   -5.6581  -19.5735  -15.0036
       10 N1     3d0        0.0010   -0.0044    0.0003   -0.0004    0.0023   -0.0007    0.0047
       11 N1     3d0        0.0013   -0.0016    0.0010   -0.0031    0.0287    0.2297    0.4539
       12 N1     3d0        0.0023    0.0198    0.0283    0.0647    0.2599    1.3070    1.7529
       13 N1     3d2+       0.0000   -0.0000   -0.0000   -0.0000   -0.0000   -0.0000   -0.0000
       14 N1     3d2+      -0.0000    0.0000   -0.0000    0.0000    0.0000    0.0000    0.0000
       15 N1     3d2+       0.0000   -0.0000    0.0000    0.0000    0.0000    0.0000    0.0000
       16 N1     4f0       -0.0007   -0.0015    0.0003    0.0009   -0.0000   -0.0132   -0.0325
       17 N1     4f0       -0.0000    0.0003   -0.0031   -0.0066   -0.0218   -0.0653   -0.0568
       18 N1     4f2+       0.0000   -0.0000    0.0000   -0.0000    0.0000    0.0000    0.0000
       19 N1     4f2+       0.0000    0.0000   -0.0000   -0.0000   -0.0000   -0.0000   -0.0000
       20 X1     2pz        0.0005    0.0063    0.9763    2.5932    7.0861    9.9344    2.1554
       21 X1     2pz       -0.0001   -0.0040   -1.5674   -4.0951   -5.1402   -3.8983    0.3293
       22 X1     2pz        0.0000    0.0013    1.8785    2.0548    1.6618    0.9371   -0.2424

      Molecular orbitals for symmetry species 6: b2g

          Orbital            1         2         3         4         5    
          Energy            0.0000    0.0493    0.1189    0.1730    0.3156
          Occ. No.          0.0000    0.0000    0.0000    0.0000    0.0000

        1 N1     2px        0.0000    0.0549    0.4731   -0.6572   -0.4632
        2 N1     2px       -0.0000    0.0125   -0.0166   -0.0237    0.0186
        3 N1     2px       -0.0000    0.5238   -0.5585   -1.3004    1.7392
        4 N1     2px       -0.0000   12.1917  -18.6690  -30.0803   58.2658
        5 N1     3d1+      -0.0000    0.0033    0.0055   -0.0159    0.0040
        6 N1     3d1+       0.0000   -0.0422    0.0969    0.0624   -0.2192
        7 N1     3d1+       0.0000   -0.1929    0.2675    0.3289   -0.3772
        8 N1     4f1+      -0.0000    0.0007   -0.0051    0.0014    0.0134
        9 N1     4f1+      -0.0000    0.0289   -0.0467   -0.0505    0.1023
       10 N1     4f3+      -0.0000   -0.0000    0.0000    0.0000   -0.0000
       11 N1     4f3+      -0.0000    0.0000   -0.0000   -0.0000    0.0000
       12 X1     3d1+       0.0000   -0.8184    1.3687    2.0532   -5.5915
       13 X1     3d1+       0.0000   -4.2552    6.6295    9.4746  -14.6439
       14 X1     3d1+      -0.0000    2.0912   -1.6772   -1.7747    1.8044
       15 X1     3d1+       1.0000   -0.0000    0.0000    0.0000   -0.0000

      Molecular orbitals for symmetry species 7: b3g

          Orbital            1         2         3         4         5    
          Energy            0.0000    0.0493    0.1189    0.1730    0.3156
          Occ. No.          0.0000    0.0000    0.0000    0.0000    0.0000

        1 N1     2py        0.0000    0.0549    0.4731   -0.6572   -0.4632
        2 N1     2py       -0.0000    0.0125   -0.0166   -0.0237    0.0186
        3 N1     2py       -0.0000    0.5238   -0.5585   -1.3004    1.7392
        4 N1     2py       -0.0000   12.1917  -18.6690  -30.0803   58.2658
        5 N1     3d1-      -0.0000    0.0033    0.0055   -0.0159    0.0040
        6 N1     3d1-       0.0000   -0.0422    0.0969    0.0624   -0.2192
        7 N1     3d1-       0.0000   -0.1929    0.2675    0.3289   -0.3772
        8 N1     4f3-      -0.0000    0.0000   -0.0000   -0.0000    0.0000
        9 N1     4f3-      -0.0000   -0.0000    0.0000    0.0000   -0.0000
       10 N1     4f1-      -0.0000    0.0007   -0.0051    0.0014    0.0134
       11 N1     4f1-      -0.0000    0.0289   -0.0467   -0.0505    0.1023
       12 X1     3d1-       0.0000   -0.8184    1.3687    2.0532   -5.5915
       13 X1     3d1-       0.0000   -4.2552    6.6295    9.4746  -14.6439
       14 X1     3d1-      -0.0000    2.0912   -1.6772   -1.7747    1.8044
       15 X1     3d1-       1.0000   -0.0000    0.0000    0.0000   -0.0000
--


++    Molecular charges:
      ------------------

      Mulliken charges per centre and basis function type
      ---------------------------------------------------

                N1      X1    
      1s       4.0417 -0.1005
      2px      0.9590  0.0069
      2pz      1.0231  0.0023
      2py      0.9590  0.0069
      3d2+     0.0000 -0.0000
      3d1+     0.0346  0.0000
      3d0      0.0011 -0.0371
      3d1-     0.0346  0.0000
      3d2-     0.0000  0.0000
      4f3+     0.0000  0.0000
      4f2+     0.0000  0.0000
      4f1+     0.0030  0.0000
      4f0      0.0018  0.0000
      4f1-     0.0030  0.0000
      4f2-     0.0000  0.0000
      4f3-     0.0000  0.0000
      Total    7.0607 -0.1215

      N-E     -0.0607  0.1215

      Total electronic charge=   14.000000

      Total            charge=   -0.000000
--


++    Molecular properties:
      ---------------------

      Charge (e):
                      =   -0.0000
      Dipole Moment (Debye):
      Origin of the operator (Ang)=    0.0000    0.0000    0.0000
                   X=  0.0000E+00               Y=  0.0000E+00               Z=  0.0000E+00           Total=  0.0000E+00
      Quadrupole Moment (Debye*Ang):
      Origin of the operator (Ang)=    0.0000    0.0000    0.0000
                  XX= -1.0396E+01              XY=  0.0000E+00              XZ=  0.0000E+00              YY= -1.0396E+01
                  YZ=  0.0000E+00              ZZ= -1.1646E+01
      In traceless form (Debye*Ang)
                  XX=  6.2522E-01              XY=  0.0000E+00              XZ=  0.0000E+00              YY=  6.2522E-01
                  YZ=  0.0000E+00              ZZ= -1.2504E+00
--


  Input file to MOLDEN was generated!

 ###############################################################################
 ###############################################################################
 ###                                                                         ###
 ###                                                                         ###
 ###    WARNING: RunFile label nBas                                          ###
 ###    was used       72 times                                              ###
 ###                                                                         ###
 ###                                                                         ###
 ###############################################################################
 ###############################################################################
--- Stop Module: scf at Mon Apr  4 21:39:02 2022 /rc=_RC_ALL_IS_WELL_ ---
*** files: xms.scf.molden xms.ScfOrb xms.scf.h5 xmldump
    saved to directory /home/gayverjr/col_test/molcas
--- Module scf spent 1 second ---

*** symbolic link created: INPORB -> xms.ScfOrb
--- Start Module: rasscf at Mon Apr  4 21:39:02 2022 ---

()()()()()()()()()()()()()()()()()()()()()()()()()()()()()()()()()()()()()()()()()()()()()()()()()()

                                              &RASSCF

                                   only a single process is used
                       available to each process: 20 GB of memory, 16 threads
                                              pid: 641
()()()()()()()()()()()()()()()()()()()()()()()()()()()()()()()()()()()()()()()()()()()()()()()()()()


      Header of the ONEINT file:
      --------------------------
      
      Integrals generated by Gateway/Seward, Mon Apr  4 21:38:57 2022


      OrdInt status: non-squared


      Cartesian coordinates in Angstrom:
      -----------------------------------------------------
      No.  Label        X            Y            Z        
      -----------------------------------------------------
       1   N1         0.00000000   0.00000000   0.54875677
       2   X1         0.00000000   0.00000000   0.00000000
       3   N1         0.00000000   0.00000000  -0.54875677
      -----------------------------------------------------
      Nuclear repulsion energy =   23.62584378

++    Wave function specifications:
      -----------------------------

      Number of closed shell electrons          10
      Number of electrons in active shells       5
      Max number of holes in RAS1 space          0
      Max nr of electrons in RAS3 space          0
      Number of inactive orbitals                5
      Number of active orbitals                 13
      Number of secondary orbitals             106
      Spin quantum number                      0.5
      State symmetry                             6
--

++    Orbital specifications:
      -----------------------

      Symmetry species                           1   2   3   4   5   6   7   8
                                                ag b3u b2u b1g b1u b2g b3g  au
      Frozen orbitals                            0   0   0   0   0   0   0   0
      Inactive orbitals                          3   0   0   0   2   0   0   0
      Active orbitals                            0   1   1   0   0   6   5   0
      RAS1 orbitals                              0   0   0   0   0   0   0   0
      RAS2 orbitals                              0   1   1   0   0   6   5   0
      RAS3 orbitals                              0   0   0   0   0   0   0   0
      Secondary orbitals                        27  13  13   9  20   9  10   5
      Deleted orbitals                           0   0   0   0   0   0   0   0
      Number of basis functions                 30  14  14   9  22  15  15   5
--

++    CI expansion specifications:
      ----------------------------

      Number of CSFs                          3701
      Number of determinants                  6156
      Number of root(s) required                 5
      Root chosen for geometry opt.              5
      CI roots used                              1     2     3     4     5
      weights                                0.200 0.200 0.200 0.200 0.200
      highest root included in the CI            5
      max. size of the explicit Hamiltonian    200
--

++    Optimization specifications:
      ----------------------------

      RASSCF algorithm: Conventional
      Maximum number of macro iterations       200
      Maximum number of SX iterations          100
      Threshold for RASSCF energy            0.100E-07
      Threshold for max MO rotation          0.100E+00
      Threshold for max BLB element          0.100E-03
      Level shift parameter                  0.500E+00
      Make Quasi-Newton update
--

      Orbitals from runfile: scf orbitals
      The MO-coefficients are taken from scf orbitals on runfile

      Total molecular charge   -1.00

      ************************************************************************************************************************
      *                                                                                                                      *
      *                                            Wave function control section                                             *
      *                                                                                                                      *
      ************************************************************************************************************************


                                         RASSCF iterations: Energy and convergence statistics
                                         ----------------------------------------------------

      Iter CI   SX   CI       RASSCF       Energy    max ROT     max BLB   max BLB  Level Ln srch  Step   QN   Walltime
          iter iter root      energy       change     param      element    value   shift minimum  type update hh:mm:ss
 Nr of preliminary CI iterations:   5
 ###############################################################################
 ###############################################################################
 ###                                                                         ###
 ###                                                                         ###
 ###    WARNING: Problems in orbital optimization.                           ###
 ###                                                                         ###
 ###                                                                         ###
 ###############################################################################
 ###############################################################################
  Warning: In symmetry  7, orbital p=   1 has diagonal density matrix element D(p,p) close to zero. D(p,p)=  0.367249D-21
        1   1   23    0  -108.91416574    0.00E+00  -0.45E+00*   1   9 2 -0.31E-01*  0.50   0.00    SX    NO    0:00:00
 ###############################################################################
 ###############################################################################
 ###                                                                         ###
 ###                                                                         ###
 ###    WARNING: Problems in orbital optimization.                           ###
 ###                                                                         ###
 ###                                                                         ###
 ###############################################################################
 ###############################################################################
  Warning: In symmetry  7, orbital p=   1 has diagonal density matrix element D(p,p) close to zero. D(p,p)=  0.251009D-22
        2   4   27    0  -108.93783443   -0.24E-01*  0.93E-01    1  11 2 -0.18E-01*  0.50   0.00    SX    NO    0:00:00
 ###############################################################################
 ###############################################################################
 ###                                                                         ###
 ###                                                                         ###
 ###    WARNING: Problems in orbital optimization.                           ###
 ###                                                                         ###
 ###                                                                         ###
 ###############################################################################
 ###############################################################################
  Warning: In symmetry  7, orbital p=   1 has diagonal density matrix element D(p,p) close to zero. D(p,p)=  0.691885D-23
        3   2   27    0  -108.93914280   -0.13E-02*  0.10E+00*   1   7 3  0.68E-02*  0.50   0.00    SX    NO    0:00:00
 ###############################################################################
 ###############################################################################
 ###                                                                         ###
 ###                                                                         ###
 ###    WARNING: Problems in orbital optimization.                           ###
 ###                                                                         ###
 ###                                                                         ###
 ###############################################################################
 ###############################################################################
  Warning: In symmetry  7, orbital p=   1 has diagonal density matrix element D(p,p) close to zero. D(p,p)=  0.408751D-23
        4   5   25    0  -108.93953540   -0.39E-03*  0.12E+00*   1   7 3  0.36E-02*  0.50   0.00    SX    NO    0:00:00
 ###############################################################################
 ###############################################################################
 ###                                                                         ###
 ###                                                                         ###
 ###    WARNING: Problems in orbital optimization.                           ###
 ###                                                                         ###
 ###                                                                         ###
 ###############################################################################
 ###############################################################################
  Warning: In symmetry  7, orbital p=   1 has diagonal density matrix element D(p,p) close to zero. D(p,p)=  0.420064D-23
        5   5   25    0  -108.93976352   -0.23E-03*  0.23E+00*   3  10 1 -0.20E-02*  0.50   2.50    QN   YES    0:00:00
 ###############################################################################
 ###############################################################################
 ###                                                                         ###
 ###                                                                         ###
 ###    WARNING: Problems in orbital optimization.                           ###
 ###                                                                         ###
 ###                                                                         ###
 ###############################################################################
 ###############################################################################
  Warning: In symmetry  7, orbital p=   1 has diagonal density matrix element D(p,p) close to zero. D(p,p)=  0.374904D-23
        6   4   26    0  -108.94003705   -0.27E-03*  0.10E+00*   1   7 3 -0.37E-03*  0.50   1.67    LS   YES    0:00:00
 ###############################################################################
 ###############################################################################
 ###                                                                         ###
 ###                                                                         ###
 ###    WARNING: Problems in orbital optimization.                           ###
 ###                                                                         ###
 ###                                                                         ###
 ###############################################################################
 ###############################################################################
  Warning: In symmetry  7, orbital p=   1 has diagonal density matrix element D(p,p) close to zero. D(p,p)=  0.342506D-23
        7   3   26    0  -108.94009487   -0.58E-04*  0.84E-01    1   7 3 -0.14E-02*  0.50   1.68    QN   YES    0:00:00
 ###############################################################################
 ###############################################################################
 ###                                                                         ###
 ###                                                                         ###
 ###    WARNING: Problems in orbital optimization.                           ###
 ###                                                                         ###
 ###                                                                         ###
 ###############################################################################
 ###############################################################################
  Warning: In symmetry  7, orbital p=   1 has diagonal density matrix element D(p,p) close to zero. D(p,p)=  0.333622D-23
        8   4   25    0  -108.94012800   -0.33E-04*  0.57E-01    1   7 3 -0.14E-02*  0.50   1.83    LS   YES    0:00:00
 ###############################################################################
 ###############################################################################
 ###                                                                         ###
 ###                                                                         ###
 ###    WARNING: Problems in orbital optimization.                           ###
 ###                                                                         ###
 ###                                                                         ###
 ###############################################################################
 ###############################################################################
  Warning: In symmetry  7, orbital p=   1 has diagonal density matrix element D(p,p) close to zero. D(p,p)=  0.324503D-23
        9   3   25    0  -108.94013673   -0.87E-05*  0.16E-01    1   7 3 -0.14E-02*  0.50   1.26    QN   YES    0:00:00
 ###############################################################################
 ###############################################################################
 ###                                                                         ###
 ###                                                                         ###
 ###    WARNING: Problems in orbital optimization.                           ###
 ###                                                                         ###
 ###                                                                         ###
 ###############################################################################
 ###############################################################################
  Warning: In symmetry  7, orbital p=   1 has diagonal density matrix element D(p,p) close to zero. D(p,p)=  0.312257D-23
       10   5   24    0  -108.94014684   -0.10E-04*  0.17E-01    1   7 3 -0.70E-03*  0.50   2.09    LS   YES    0:00:00
 ###############################################################################
 ###############################################################################
 ###                                                                         ###
 ###                                                                         ###
 ###    WARNING: Problems in orbital optimization.                           ###
 ###                                                                         ###
 ###                                                                         ###
 ###############################################################################
 ###############################################################################
  Warning: In symmetry  7, orbital p=   1 has diagonal density matrix element D(p,p) close to zero. D(p,p)=  0.304651D-23
       11   3   25    0  -108.94015039   -0.36E-05* -0.69E-02    3  10 1  0.34E-03*  0.50   1.01    QN   YES    0:00:00
 ###############################################################################
 ###############################################################################
 ###                                                                         ###
 ###                                                                         ###
 ###    WARNING: Problems in orbital optimization.                           ###
 ###                                                                         ###
 ###                                                                         ###
 ###############################################################################
 ###############################################################################
  Warning: In symmetry  7, orbital p=   1 has diagonal density matrix element D(p,p) close to zero. D(p,p)=  0.308803D-23
       12   5   23    0  -108.94015289   -0.25E-05* -0.38E-01    1   7 3  0.14E-03*  0.50   2.50    QN   YES    0:00:00
 ###############################################################################
 ###############################################################################
 ###                                                                         ###
 ###                                                                         ###
 ###    WARNING: Problems in orbital optimization.                           ###
 ###                                                                         ###
 ###                                                                         ###
 ###############################################################################
 ###############################################################################
  Warning: In symmetry  7, orbital p=   1 has diagonal density matrix element D(p,p) close to zero. D(p,p)=  0.376554D-23
       13   5   25    0  -108.94016155   -0.87E-05*  0.21E+00*   3  10 1 -0.58E-03*  0.50   2.50    QN   YES    0:00:00
 ###############################################################################
 ###############################################################################
 ###                                                                         ###
 ###                                                                         ###
 ###    WARNING: Problems in orbital optimization.                           ###
 ###                                                                         ###
 ###                                                                         ###
 ###############################################################################
 ###############################################################################
  Warning: In symmetry  7, orbital p=   1 has diagonal density matrix element D(p,p) close to zero. D(p,p)=  0.983421D-23
       14   7   28    0  -108.94016111    0.44E-06* -0.20E-01    3  10 1 -0.38E-02*  0.50   0.57    SX   YES    0:00:00
 ###############################################################################
 ###############################################################################
 ###                                                                         ###
 ###                                                                         ###
 ###    WARNING: Problems in orbital optimization.                           ###
 ###                                                                         ###
 ###                                                                         ###
 ###############################################################################
 ###############################################################################
  Warning: In symmetry  7, orbital p=   1 has diagonal density matrix element D(p,p) close to zero. D(p,p)=  0.929351D-23
       15   6   27    0  -108.94024874   -0.88E-04* -0.18E+00*   3  10 1 -0.28E-02*  0.50   2.50    QN   YES    0:00:00
 ###############################################################################
 ###############################################################################
 ###                                                                         ###
 ###                                                                         ###
 ###    WARNING: Problems in orbital optimization.                           ###
 ###                                                                         ###
 ###                                                                         ###
 ###############################################################################
 ###############################################################################
  Warning: In symmetry  7, orbital p=   1 has diagonal density matrix element D(p,p) close to zero. D(p,p)=  0.738255D-23
       16   5   27    0  -108.94040282   -0.15E-03* -0.15E+00*   3  10 1 -0.19E-02*  0.50   2.37    LS   YES    0:00:00
 ###############################################################################
 ###############################################################################
 ###                                                                         ###
 ###                                                                         ###
 ###    WARNING: Problems in orbital optimization.                           ###
 ###                                                                         ###
 ###                                                                         ###
 ###############################################################################
 ###############################################################################
  Warning: In symmetry  7, orbital p=   1 has diagonal density matrix element D(p,p) close to zero. D(p,p)=  0.527513D-23
       17   5   27    0  -108.94047426   -0.71E-04* -0.12E+00*   3  10 1 -0.12E-02*  0.50   2.24    LS   YES    0:00:00
 ###############################################################################
 ###############################################################################
 ###                                                                         ###
 ###                                                                         ###
 ###    WARNING: Problems in orbital optimization.                           ###
 ###                                                                         ###
 ###                                                                         ###
 ###############################################################################
 ###############################################################################
  Warning: In symmetry  7, orbital p=   1 has diagonal density matrix element D(p,p) close to zero. D(p,p)=  0.405625D-23
       18   5   28    0  -108.94050126   -0.27E-04* -0.12E+00*   1   7 2 -0.86E-03*  0.50   1.51    QN   YES    0:00:00
 ###############################################################################
 ###############################################################################
 ###                                                                         ###
 ###                                                                         ###
 ###    WARNING: Problems in orbital optimization.                           ###
 ###                                                                         ###
 ###                                                                         ###
 ###############################################################################
 ###############################################################################
  Warning: In symmetry  7, orbital p=   1 has diagonal density matrix element D(p,p) close to zero. D(p,p)=  0.298706D-23
       19   7   27    0  -108.94054373   -0.42E-04* -0.12E+00*   1   7 2 -0.91E-03*  0.50   2.50    LS   YES    0:00:00
 ###############################################################################
 ###############################################################################
 ###                                                                         ###
 ###                                                                         ###
 ###    WARNING: Problems in orbital optimization.                           ###
 ###                                                                         ###
 ###                                                                         ###
 ###############################################################################
 ###############################################################################
  Warning: In symmetry  7, orbital p=   1 has diagonal density matrix element D(p,p) close to zero. D(p,p)=  0.250710D-23
       20   5   26    0  -108.94056911   -0.25E-04* -0.11E+00*   3  16 1  0.11E-02*  0.50   2.00    QN   YES    0:00:00
 ###############################################################################
 ###############################################################################
 ###                                                                         ###
 ###                                                                         ###
 ###    WARNING: Problems in orbital optimization.                           ###
 ###                                                                         ###
 ###                                                                         ###
 ###############################################################################
 ###############################################################################
  Warning: In symmetry  7, orbital p=   1 has diagonal density matrix element D(p,p) close to zero. D(p,p)=  0.247814D-23
       21   5   26    0  -108.94058798   -0.19E-04* -0.81E-01    3  16 1  0.66E-03*  0.50   1.95    LS   YES    0:00:00
 ###############################################################################
 ###############################################################################
 ###                                                                         ###
 ###                                                                         ###
 ###    WARNING: Problems in orbital optimization.                           ###
 ###                                                                         ###
 ###                                                                         ###
 ###############################################################################
 ###############################################################################
  Warning: In symmetry  7, orbital p=   1 has diagonal density matrix element D(p,p) close to zero. D(p,p)=  0.274683D-23
       22   4   26    0  -108.94059342   -0.54E-05*  0.17E-01    3  16 1  0.38E-03*  0.50   1.27    QN   YES    0:00:00
 ###############################################################################
 ###############################################################################
 ###                                                                         ###
 ###                                                                         ###
 ###    WARNING: Problems in orbital optimization.                           ###
 ###                                                                         ###
 ###                                                                         ###
 ###############################################################################
 ###############################################################################
  Warning: In symmetry  7, orbital p=   1 has diagonal density matrix element D(p,p) close to zero. D(p,p)=  0.284019D-23
       23   5   25    0  -108.94059916   -0.57E-05*  0.23E-01    3  10 1  0.17E-03*  0.50   2.50    LS   YES    0:00:00
 ###############################################################################
 ###############################################################################
 ###                                                                         ###
 ###                                                                         ###
 ###    WARNING: Problems in orbital optimization.                           ###
 ###                                                                         ###
 ###                                                                         ###
 ###############################################################################
 ###############################################################################
  Warning: In symmetry  7, orbital p=   1 has diagonal density matrix element D(p,p) close to zero. D(p,p)=  0.293234D-23
       24   6   25    0  -108.94060404   -0.49E-05*  0.34E-01    3  19 1  0.35E-03*  0.50   1.98    QN   YES    0:00:00
 ###############################################################################
 ###############################################################################
 ###                                                                         ###
 ###                                                                         ###
 ###    WARNING: Problems in orbital optimization.                           ###
 ###                                                                         ###
 ###                                                                         ###
 ###############################################################################
 ###############################################################################
  Warning: In symmetry  7, orbital p=   1 has diagonal density matrix element D(p,p) close to zero. D(p,p)=  0.283271D-23
       25   8   25    0  -108.94061089   -0.69E-05*  0.37E-01    3  16 1 -0.47E-03*  0.50   2.25    LS   YES    0:00:00
 ###############################################################################
 ###############################################################################
 ###                                                                         ###
 ###                                                                         ###
 ###    WARNING: Problems in orbital optimization.                           ###
 ###                                                                         ###
 ###                                                                         ###
 ###############################################################################
 ###############################################################################
  Warning: In symmetry  7, orbital p=   1 has diagonal density matrix element D(p,p) close to zero. D(p,p)=  0.275094D-23
       26   7   26    0  -108.94061382   -0.29E-05* -0.19E-01    3  16 1 -0.64E-03*  0.50   1.14    QN   YES    0:00:00
 ###############################################################################
 ###############################################################################
 ###                                                                         ###
 ###                                                                         ###
 ###    WARNING: Problems in orbital optimization.                           ###
 ###                                                                         ###
 ###                                                                         ###
 ###############################################################################
 ###############################################################################
  Warning: In symmetry  7, orbital p=   1 has diagonal density matrix element D(p,p) close to zero. D(p,p)=  0.273423D-23
       27  12   25    0  -108.94061891   -0.51E-05* -0.74E-01    3  16 1 -0.42E-03*  0.50   2.50    QN   YES    0:00:00
 ###############################################################################
 ###############################################################################
 ###                                                                         ###
 ###                                                                         ###
 ###    WARNING: Problems in orbital optimization.                           ###
 ###                                                                         ###
 ###                                                                         ###
 ###############################################################################
 ###############################################################################
  Warning: In symmetry  7, orbital p=   1 has diagonal density matrix element D(p,p) close to zero. D(p,p)=  0.276640D-23
       28   7   25    0  -108.94063136   -0.12E-04* -0.38E-01    3  19 1 -0.33E-03*  0.50   1.46    QN   YES    0:00:00
 ###############################################################################
 ###############################################################################
 ###                                                                         ###
 ###                                                                         ###
 ###    WARNING: Problems in orbital optimization.                           ###
 ###                                                                         ###
 ###                                                                         ###
 ###############################################################################
 ###############################################################################
  Warning: In symmetry  7, orbital p=   1 has diagonal density matrix element D(p,p) close to zero. D(p,p)=  0.279524D-23
       29   6   25    0  -108.94063524   -0.39E-05* -0.25E-01    3  19 1 -0.41E-03*  0.50   1.72    QN   YES    0:00:00
 ###############################################################################
 ###############################################################################
 ###                                                                         ###
 ###                                                                         ###
 ###    WARNING: Problems in orbital optimization.                           ###
 ###                                                                         ###
 ###                                                                         ###
 ###############################################################################
 ###############################################################################
  Warning: In symmetry  7, orbital p=   1 has diagonal density matrix element D(p,p) close to zero. D(p,p)=  0.285096D-23
       30   6   25    0  -108.94063801   -0.28E-05* -0.16E-01    3  16 1  0.32E-03*  0.50   1.79    QN   YES    0:00:00
 ###############################################################################
 ###############################################################################
 ###                                                                         ###
 ###                                                                         ###
 ###    WARNING: Problems in orbital optimization.                           ###
 ###                                                                         ###
 ###                                                                         ###
 ###############################################################################
 ###############################################################################
  Warning: In symmetry  7, orbital p=   1 has diagonal density matrix element D(p,p) close to zero. D(p,p)=  0.293142D-23
       31   6   25    0  -108.94064021   -0.22E-05*  0.13E-01    3   7 1  0.11E-03*  0.50   1.73    QN   YES    0:00:00
 ###############################################################################
 ###############################################################################
 ###                                                                         ###
 ###                                                                         ###
 ###    WARNING: Problems in orbital optimization.                           ###
 ###                                                                         ###
 ###                                                                         ###
 ###############################################################################
 ###############################################################################
  Warning: In symmetry  7, orbital p=   1 has diagonal density matrix element D(p,p) close to zero. D(p,p)=  0.302991D-23
       32   8   25    0  -108.94064211   -0.19E-05* -0.22E-01    3  19 1  0.18E-03*  0.50   2.14    QN   YES    0:00:00
 ###############################################################################
 ###############################################################################
 ###                                                                         ###
 ###                                                                         ###
 ###    WARNING: Problems in orbital optimization.                           ###
 ###                                                                         ###
 ###                                                                         ###
 ###############################################################################
 ###############################################################################
  Warning: In symmetry  7, orbital p=   1 has diagonal density matrix element D(p,p) close to zero. D(p,p)=  0.322305D-23
       33   7   25    0  -108.94064515   -0.30E-05*  0.50E-01    3  16 1 -0.41E-03*  0.50   2.50    QN   YES    0:00:00
 ###############################################################################
 ###############################################################################
 ###                                                                         ###
 ###                                                                         ###
 ###    WARNING: Problems in orbital optimization.                           ###
 ###                                                                         ###
 ###                                                                         ###
 ###############################################################################
 ###############################################################################
  Warning: In symmetry  7, orbital p=   1 has diagonal density matrix element D(p,p) close to zero. D(p,p)=  0.360777D-23
       34   8   26    0  -108.94065184   -0.67E-05*  0.10E+00*   3  16 1 -0.80E-03*  0.50   2.50    QN   YES    0:00:00
 ###############################################################################
 ###############################################################################
 ###                                                                         ###
 ###                                                                         ###
 ###    WARNING: Problems in orbital optimization.                           ###
 ###                                                                         ###
 ###                                                                         ###
 ###############################################################################
 ###############################################################################
  Warning: In symmetry  7, orbital p=   1 has diagonal density matrix element D(p,p) close to zero. D(p,p)=  0.406279D-23
       35   9   28    0  -108.94066488   -0.13E-04*  0.12E+00*   3  16 1 -0.14E-02*  0.50   1.77    QN   YES    0:00:00
 ###############################################################################
 ###############################################################################
 ###                                                                         ###
 ###                                                                         ###
 ###    WARNING: Problems in orbital optimization.                           ###
 ###                                                                         ###
 ###                                                                         ###
 ###############################################################################
 ###############################################################################
  Warning: In symmetry  7, orbital p=   1 has diagonal density matrix element D(p,p) close to zero. D(p,p)=  0.403426D-23
       36   7   29    0  -108.94067970   -0.15E-04*  0.99E-01    3  16 1 -0.18E-02*  0.50   1.50    QN   YES    0:00:00
 ###############################################################################
 ###############################################################################
 ###                                                                         ###
 ###                                                                         ###
 ###    WARNING: Problems in orbital optimization.                           ###
 ###                                                                         ###
 ###                                                                         ###
 ###############################################################################
 ###############################################################################
  Warning: In symmetry  7, orbital p=   1 has diagonal density matrix element D(p,p) close to zero. D(p,p)=  0.388732D-23
       37   5   29    0  -108.94069826   -0.19E-04*  0.11E+00*   3  16 1 -0.18E-02*  0.50   2.18    QN   YES    0:00:00
 ###############################################################################
 ###############################################################################
 ###                                                                         ###
 ###                                                                         ###
 ###    WARNING: Problems in orbital optimization.                           ###
 ###                                                                         ###
 ###                                                                         ###
 ###############################################################################
 ###############################################################################
  Warning: In symmetry  7, orbital p=   1 has diagonal density matrix element D(p,p) close to zero. D(p,p)=  0.337797D-23
       38   5   29    0  -108.94073179   -0.34E-04*  0.84E-01    3  16 1 -0.14E-02*  0.50   2.19    QN   YES    0:00:00
 ###############################################################################
 ###############################################################################
 ###                                                                         ###
 ###                                                                         ###
 ###    WARNING: Problems in orbital optimization.                           ###
 ###                                                                         ###
 ###                                                                         ###
 ###############################################################################
 ###############################################################################
  Warning: In symmetry  7, orbital p=   1 has diagonal density matrix element D(p,p) close to zero. D(p,p)=  0.272114D-23
       39   6   28    0  -108.94076824   -0.36E-04*  0.61E-01    3  13 1  0.65E-03*  0.50   1.99    LS   YES    0:00:00
 ###############################################################################
 ###############################################################################
 ###                                                                         ###
 ###                                                                         ###
[...]
BVATP    8  Mu8.0001  Se5.003 Se4.001               0.27054368     -0.00000000      0.00000000     -0.00000000
BVATM    5  Mu5.0001  Se5.003 Se1.004               0.26383303      0.00000000     -0.00000000     -0.00000000
BVATM    5  Mu5.0001  Se5.003 Se1.005               0.26383411     -0.00000000      0.00000000     -0.00000000
BVATM    8  Mu8.0001  Se5.003 Se4.001               0.27165305     -0.00000000      0.00000000     -0.00000000
BJAIP    1  Se5.011 In1.003 Se5.011 In1.003         3.44168940      0.08617778     -0.02501826     -0.00215602
--

   (Skipping property calculation,
    use PROP keyword to activate)
********************************************************************************
 Compute H0 matrices for state    5
--------------------------------------------------------------------------------
--------------------------------------------------------------------------------
 H0 matrices have been computed.

********************************************************************************
  CASPT2 EQUATION SOLUTION
--------------------------------------------------------------------------------

  Total nr of CASPT2 parameters:
   Before reduction:      225853
   After  reduction:      167877

 The contributions to the second order correlation energy in atomic units.
-----------------------------------------------------------------------------------------------------------------------------
  IT.      VJTU        VJTI        ATVX        AIVX        VJAI        BVAT        BJAT        BJAI        TOTAL       RNORM  
-----------------------------------------------------------------------------------------------------------------------------
   1     0.000000   -0.008951   -0.011862   -0.085168   -0.014746   -0.034520   -0.070917   -0.067510   -0.293675    0.019125
   2     0.000000   -0.009181   -0.012007   -0.085729   -0.014898   -0.034516   -0.070897   -0.067584   -0.294812    0.004935
   3     0.000000   -0.009189   -0.012028   -0.085823   -0.014895   -0.034521   -0.070930   -0.067589   -0.294975    0.001294
   4     0.000000   -0.009194   -0.012024   -0.085793   -0.014885   -0.034521   -0.070930   -0.067589   -0.294935    0.000414
   5     0.000000   -0.009195   -0.012023   -0.085787   -0.014884   -0.034521   -0.070928   -0.067588   -0.294926    0.000106
   6     0.000000   -0.009195   -0.012024   -0.085789   -0.014885   -0.034521   -0.070928   -0.067589   -0.294930    0.000031
   7     0.000000   -0.009195   -0.012024   -0.085789   -0.014885   -0.034521   -0.070928   -0.067589   -0.294930    0.000009
   8     0.000000   -0.009195   -0.012024   -0.085789   -0.014885   -0.034521   -0.070928   -0.067589   -0.294930    0.000003
-----------------------------------------------------------------------------------------------------------------------------

  FINAL CASPT2 RESULT:

      Reference energy:        -108.7566990448
      E2 (Non-variational):      -0.2949299282
      Shift correction:          -0.0003577334
      E2 (Variational):          -0.2952876616
      Total energy:            -109.0519867064
      Residual norm:              0.0000009059
      Reference weight:           0.92319

      Contributions to the CASPT2 correlation energy
      Active & Virtual Only:         -0.0465445989
      One Inactive Excited:          -0.1567175168
      Two Inactive Excited:          -0.0916678125


++ Denominators, etc.
--------------------------------------------------------------------------------------------------------------
 Report on small energy denominators, large coefficients, and large energy contributions.
CASE  SYMM ACTIVE-MIX  NON-ACTIVE INDICES          DENOMINATOR     RHS VALUE       COEFFICIENT     CONTRIBUTION
VJTIP    1  Mu1.0015  In5.002 In5.002               1.88866854      0.07198032     -0.03733006     -0.00268703
ATVX     2  Mu2.0001  Se2.002                       0.11779434      0.00000000     -0.00000000     -0.00000000
ATVX     2  Mu2.0002  Se2.002                       0.13194390     -0.00000000      0.00000000     -0.00000000
ATVX     2  Mu2.0003  Se2.002                       0.23014217     -0.00002520      0.00009207     -0.00000000
ATVX     2  Mu2.0004  Se2.002                       0.27844692      0.00000000     -0.00000000     -0.00000000
ATVX     2  Mu2.0005  Se2.002                       0.29217434     -0.00000000      0.00000000     -0.00000000
ATVX     2  Mu2.0001  Se2.003                       0.16678098      0.00000000     -0.00000000     -0.00000000
ATVX     2  Mu2.0002  Se2.003                       0.18093054     -0.00000000      0.00000000     -0.00000000
ATVX     2  Mu2.0003  Se2.003                       0.27912881     -0.00002202      0.00006891     -0.00000000
ATVX     2  Mu2.0001  Se2.004                       0.24780883      0.00000000     -0.00000001     -0.00000000
ATVX     2  Mu2.0002  Se2.004                       0.26195840     -0.00000000      0.00000000     -0.00000000
ATVX     2  Mu2.0009  Se2.005                       0.71787061     -0.02445347      0.03418297     -0.00083589
ATVX     3  Mu3.0001  Se3.002                       0.11623175      0.00000000     -0.00000000     -0.00000000
ATVX     3  Mu3.0002  Se3.002                       0.13036989      0.00000000     -0.00000000     -0.00000000
ATVX     3  Mu3.0003  Se3.002                       0.24145193     -0.00000825      0.00002942     -0.00000000
ATVX     3  Mu3.0004  Se3.002                       0.27688433     -0.00000000      0.00000000     -0.00000000
ATVX     3  Mu3.0005  Se3.002                       0.29060034     -0.00000000      0.00000000     -0.00000000
ATVX     3  Mu3.0001  Se3.003                       0.16383611      0.00000000     -0.00000000     -0.00000000
ATVX     3  Mu3.0002  Se3.003                       0.17797425      0.00000000     -0.00000001     -0.00000000
ATVX     3  Mu3.0003  Se3.003                       0.28905629     -0.00008193      0.00025492     -0.00000002
ATVX     3  Mu3.0001  Se3.004                       0.24425591      0.00000000     -0.00000000     -0.00000000
ATVX     3  Mu3.0002  Se3.004                       0.25839405      0.00000001     -0.00000002     -0.00000000
ATVX     6  Mu6.0001  Se6.007                       0.29716259      0.00039218     -0.00145886     -0.00000057
AIVX     1  Mu1.0001  In1.003 Se1.004               0.15150690      0.00000000     -0.00000000     -0.00000000
AIVX     1  Mu1.0002  In1.003 Se1.004               0.26258372      0.00000000     -0.00000000     -0.00000000
AIVX     1  Mu1.0001  In1.003 Se1.005               0.15150797      0.00000000     -0.00000000     -0.00000000
AIVX     1  Mu1.0002  In1.003 Se1.005               0.26258479      0.00000000     -0.00000000     -0.00000000
AIVX     1  Mu1.0001  In1.003 Se1.006               0.21549672     -0.00000000      0.00000000     -0.00000000
AIVX     1  Mu1.0001  In1.003 Se1.007               0.26561874      0.00000000     -0.00000000     -0.00000000
AIVX     1  Mu1.0001  In1.003 Se1.008               0.26967837     -0.00000000      0.00000000     -0.00000000
AIVX     1  Mu1.0001  In1.003 Se1.009               0.27480068     -0.00000000      0.00000000     -0.00000000
AIVX     4  Mu4.0001  In1.003 Se4.001               0.15151287      0.00000000      0.00000000      0.00000000
AIVX     4  Mu4.0001  In1.003 Se4.002               0.27368811     -0.00000000      0.00000000     -0.00000000
AIVX     5  Mu5.0012  In1.002 Se5.011               3.31593051      0.11643703     -0.03529137     -0.00410922
AIVX     5  Mu5.0011  In1.003 Se5.011               2.46841178      0.09017282     -0.03630816     -0.00327401
AIVX     5  Mu5.0012  In1.003 Se5.011               2.47879939      0.10246170     -0.04130639     -0.00423232
VJAIP    7  Mu7.0002  Se3.009 In5.002 In1.003       3.02050854      0.07787314     -0.02559541     -0.00199319
BVATP    5  Mu5.0001  Se5.003 Se1.004               0.18085728      0.00000000     -0.00000000     -0.00000000
BVATP    5  Mu5.0001  Se5.003 Se1.005               0.18085835      0.00000000     -0.00000000     -0.00000000
BVATP    5  Mu5.0001  Se5.003 Se1.006               0.24484710      0.00000445     -0.00001556     -0.00000000
BVATP    5  Mu5.0001  Se5.003 Se1.007               0.29496912     -0.00002045      0.00006219     -0.00000000
BVATP    5  Mu5.0001  Se5.003 Se1.008               0.29902876      0.00000592     -0.00001780     -0.00000000
BVATP    5  Mu5.0001  Se5.004 Se1.004               0.22965159     -0.00000000      0.00000000     -0.00000000
BVATP    5  Mu5.0001  Se5.004 Se1.005               0.22965267      0.00000000     -0.00000000     -0.00000000
BVATP    5  Mu5.0001  Se5.004 Se1.006               0.29364141     -0.00000694      0.00002117     -0.00000000
BVATP    5  Mu5.0001  Se7.006 Se3.002               0.29525246     -0.00000013     -0.00000055      0.00000000
BVATP    8  Mu8.0001  Se5.003 Se4.001               0.17111970      0.00000000     -0.00000000     -0.00000000
BVATP    8  Mu8.0001  Se5.003 Se4.002               0.29329493     -0.00000794      0.00002424     -0.00000000
BVATP    8  Mu8.0001  Se5.004 Se4.001               0.21991401      0.00000000     -0.00000000     -0.00000000
BVATP    8  Mu8.0001  Se5.005 Se4.001               0.29672158      0.00000000     -0.00000000     -0.00000000
BVATP    8  Mu8.0001  Se7.006 Se2.002               0.28708291     -0.00000202      0.00001609     -0.00000000
BVATM    5  Mu5.0001  Se5.003 Se1.004               0.11773569      0.00000000     -0.00000000     -0.00000000
BVATM    5  Mu5.0001  Se5.003 Se1.005               0.11773677     -0.00000000      0.00000000     -0.00000000
BVATM    5  Mu5.0001  Se5.003 Se1.006               0.18172552      0.00000483     -0.00002040     -0.00000000
BVATM    5  Mu5.0001  Se5.003 Se1.007               0.23184753     -0.00002855      0.00010382     -0.00000000
BVATM    5  Mu5.0001  Se5.003 Se1.008               0.23590717      0.00001210     -0.00004346     -0.00000000
BVATM    5  Mu5.0001  Se5.003 Se1.009               0.24102947      0.00002885     -0.00010212     -0.00000000
BVATM    5  Mu5.0001  Se5.004 Se1.004               0.16653000      0.00000000     -0.00000000     -0.00000000
BVATM    5  Mu5.0001  Se5.004 Se1.005               0.16653108     -0.00000000      0.00000000     -0.00000000
BVATM    5  Mu5.0001  Se5.004 Se1.006               0.23051983      0.00000033     -0.00000121     -0.00000000
BVATM    5  Mu5.0001  Se5.004 Se1.007               0.28064185      0.00000562     -0.00001776     -0.00000000
BVATM    5  Mu5.0001  Se5.004 Se1.008               0.28470148     -0.00001113      0.00003479     -0.00000000
BVATM    5  Mu5.0001  Se5.004 Se1.009               0.28982378     -0.00002550      0.00007864     -0.00000000
BVATM    5  Mu5.0001  Se5.005 Se1.004               0.24333757      0.00000000     -0.00000000     -0.00000000
BVATM    5  Mu5.0001  Se5.005 Se1.005               0.24333865     -0.00000000      0.00000000     -0.00000000
BVATM    5  Mu5.0001  Se7.006 Se3.002               0.23213088     -0.00000033      0.00000189     -0.00000000
BVATM    5  Mu5.0001  Se7.006 Se3.003               0.27973524     -0.00000042      0.00000456     -0.00000000
BVATM    8  Mu8.0001  Se5.003 Se4.001               0.17219394     -0.00000000      0.00000000     -0.00000000
BVATM    8  Mu8.0001  Se5.003 Se4.002               0.29436918     -0.00001547      0.00004711     -0.00000000
BVATM    8  Mu8.0001  Se5.004 Se4.001               0.22098825     -0.00000000      0.00000000     -0.00000000
BVATM    8  Mu8.0001  Se5.005 Se4.001               0.29779582     -0.00000000      0.00000000     -0.00000000
BVATM    8  Mu8.0001  Se7.006 Se2.002               0.28815715      0.00000406     -0.00003110     -0.00000000
BJAIP    1  Se5.011 In1.003 Se5.011 In1.003         3.44168940      0.08617778     -0.02501826     -0.00215602
--

   (Skipping property calculation,
    use PROP keyword to activate)
--

  Total CASPT2 energies:

  State-specific CASPT2 energies obtained using
  rotated states do not have a well-defined physical
  meaning, however they can be extracted from the
  diagonal of the effective Hamiltonian.

++ Multi-State CASPT2 section:
********************************************************************************
  MULTI-STATE CASPT2 SECTION
--------------------------------------------------------------------------------

  Output diagonal energies have been shifted. Add   -109.00000000000000     

  Effective Hamiltonian matrix (Symmetric):

                1               2               3               4               5
   1        -0.35541073
   2        -0.00000073     -0.30547171
   3        -0.00000025     -0.00838533     -0.25420590
   4        -0.00000010     -0.00413656      0.01877498     -0.20703117
   5        -0.00000004     -0.00005367     -0.00094529     -0.01604186     -0.05371385

       Total XMS-CASPT2 energies:
::    XMS-CASPT2 Root  1     Total energy:   -109.35541073
::    XMS-CASPT2 Root  2     Total energy:   -109.30682274
::    XMS-CASPT2 Root  3     Total energy:   -109.25994530
::    XMS-CASPT2 Root  4     Total energy:   -109.20164350
::    XMS-CASPT2 Root  5     Total energy:   -109.05201108

       Eigenvectors:
            1.00000000     -0.00001570     -0.00000102     -0.00000088     -0.00000009
            0.00001532      0.98813549     -0.13925225     -0.06475457      0.00197646
            0.00000365      0.15307423      0.92726546      0.34137685     -0.01445348
            0.00000065      0.01241257     -0.34679890      0.93199418     -0.10470582
            0.00000018      0.00156790     -0.02276198      0.10322573      0.99439624

       In terms of the input states:
            1.00000000     -0.00000314      0.00000021     -0.00000018     -0.00000004
            0.00000315      0.99698844     -0.07581922      0.01607154      0.00268358
            0.00000009      0.05723958      0.86099102      0.50326438      0.04629323
            0.00000009     -0.05050191     -0.48833680      0.85606553     -0.16164322
            0.00000005     -0.01368346     -0.12030415      0.11669821      0.98575920

--

  THE ORIGINAL CI ARRAYS ARE NOW MIXED AS LINEAR
  COMBINATIONS, GIVEN BY THE EIGENVECTORS.
  A NEW JOBIPH FILE NAMED 'JOBMIX' IS PREPARED.
********************************************************************************

++ Mixed CI coefficients:
  The CI coefficients for the MIXED state nr.   1
--------------------------------------------------------------------------------
 CI COEFFICIENTS LARGER THAN  0.50D-01
  Occupation of active orbitals, and spin coupling
  of open shells. (u,d: Spin up or down).
  SGUGA info is (Midvert:IsyUp:UpperWalk/LowerWalk)
        Conf  SGUGA info        Occupation           Coefficient         Weight
           1  ( 1:1:   1/   1)   2 2 u00000 00000       0.968259       0.937526
          52  ( 1:1:   1/  52)   0 2 u00200 00000       0.123704       0.015303
         290  ( 2:7:   4/  10)   u d u00d00 000u0      -0.055291       0.003057
         495  ( 3:7:   4/  13)   u d u00u00 000d0      -0.095766       0.009171
         525  ( 3:7:   4/  19)   u u u00d00 000d0      -0.075760       0.005740
         623  ( 4:1:  17/   1)   2 0 u00000 00020       0.134300       0.018036

  The CI coefficients for the MIXED state nr.   2
--------------------------------------------------------------------------------
 CI COEFFICIENTS LARGER THAN  0.50D-01
  Occupation of active orbitals, and spin coupling
  of open shells. (u,d: Spin up or down).
  SGUGA info is (Midvert:IsyUp:UpperWalk/LowerWalk)
        Conf  SGUGA info        Occupation           Coefficient         Weight
           2  ( 1:1:   1/   2)   2 2 0u0000 00000      -0.940526       0.884588
          23  ( 1:1:   1/  23)   2 2 000u00 00000       0.132585       0.017579
          54  ( 1:1:   1/  54)   0 2 0u0200 00000      -0.120128       0.014431
          65  ( 1:1:   1/  65)   2 2 0000u0 00000      -0.184985       0.034219
         300  ( 2:7:   4/  12)   u d 0u0d00 000u0       0.053694       0.002883
         505  ( 3:7:   4/  15)   u d 0u0u00 000d0       0.092991       0.008647
         530  ( 3:7:   4/  20)   u u 0u0d00 000d0       0.073592       0.005416
         675  ( 4:1:  17/   3)   2 0 0u0000 00020      -0.130408       0.017006

  The CI coefficients for the MIXED state nr.   3
--------------------------------------------------------------------------------
 CI COEFFICIENTS LARGER THAN  0.50D-01
  Occupation of active orbitals, and spin coupling
  of open shells. (u,d: Spin up or down).
  SGUGA info is (Midvert:IsyUp:UpperWalk/LowerWalk)
        Conf  SGUGA info        Occupation           Coefficient         Weight
           2  ( 1:1:   1/   2)   2 2 0u0000 00000       0.204468       0.041807
           7  ( 1:1:   1/   7)   2 2 00u000 00000      -0.322629       0.104090
          23  ( 1:1:   1/  23)   2 2 000u00 00000       0.795151       0.632266
          65  ( 1:1:   1/  65)   2 2 0000u0 00000      -0.412273       0.169969
          99  ( 1:1:   1/  99)   0 2 0002u0 00000       0.050648       0.002565
         161  ( 2:6:   1/   1)   2 2 00000u 00000      -0.062950       0.003963
         320  ( 2:7:   4/  16)   u d 000200 000u0      -0.068487       0.004690
         540  ( 3:7:   4/  22)   u u 000200 000d0      -0.073435       0.005393
         987  ( 4:1:  17/  15)   2 0 000u00 00020       0.114168       0.013034
        1351  ( 4:1:  17/  29)   2 0 0000u0 00020      -0.057223       0.003274

  The CI coefficients for the MIXED state nr.   4
--------------------------------------------------------------------------------
 CI COEFFICIENTS LARGER THAN  0.50D-01
  Occupation of active orbitals, and spin coupling
  of open shells. (u,d: Spin up or down).
  SGUGA info is (Midvert:IsyUp:UpperWalk/LowerWalk)
        Conf  SGUGA info        Occupation           Coefficient         Weight
           7  ( 1:1:   1/   7)   2 2 00u000 00000      -0.811022       0.657756
          23  ( 1:1:   1/  23)   2 2 000u00 00000      -0.470105       0.220999
          58  ( 1:1:   1/  58)   0 2 00u200 00000      -0.103674       0.010748
          65  ( 1:1:   1/  65)   2 2 0000u0 00000      -0.249206       0.062104
         515  ( 3:7:   4/  17)   u d 00uu00 000d0       0.080249       0.006440
         535  ( 3:7:   4/  21)   u u 00ud00 000d0       0.063410       0.004021
         779  ( 4:1:  17/   7)   2 0 00u000 00020      -0.112478       0.012651
         987  ( 4:1:  17/  15)   2 0 000u00 00020      -0.067666       0.004579

  The CI coefficients for the MIXED state nr.   5
--------------------------------------------------------------------------------
 CI COEFFICIENTS LARGER THAN  0.50D-01
  Occupation of active orbitals, and spin coupling
  of open shells. (u,d: Spin up or down).
  SGUGA info is (Midvert:IsyUp:UpperWalk/LowerWalk)
        Conf  SGUGA info        Occupation           Coefficient         Weight
           2  ( 1:1:   1/   2)   2 2 0u0000 00000       0.104216       0.010861
           7  ( 1:1:   1/   7)   2 2 00u000 00000       0.417655       0.174436
          23  ( 1:1:   1/  23)   2 2 000u00 00000      -0.286310       0.081973
          58  ( 1:1:   1/  58)   0 2 00u200 00000       0.053304       0.002841
          65  ( 1:1:   1/  65)   2 2 0000u0 00000      -0.819560       0.671679
          99  ( 1:1:   1/  99)   0 2 0002u0 00000       0.105420       0.011113
         575  ( 3:7:   4/  29)   u d 000uu0 000d0      -0.081521       0.006646
         580  ( 3:7:   4/  30)   u u 000du0 000d0       0.067121       0.004505
         779  ( 4:1:  17/   7)   2 0 00u000 00020       0.057901       0.003353
        1351  ( 4:1:  17/  29)   2 0 0000u0 00020      -0.113250       0.012826

--

--- Stop Module: caspt2 at Mon Apr  4 21:40:39 2022 /rc=_RC_ALL_IS_WELL_ ---
*** files: xmldump
    saved to directory /home/gayverjr/col_test/molcas
--- Module caspt2 spent 41 seconds ---
 Happy landing!
    Timing: Wall=102.69 User=755.36 System=22.20
