*******************************************************
*** WorkDir is not cleaned in parallel environment! ***
*******************************************************
   This run of MOLCAS is using the pymolcas driver

                             OPE
                             OPE          NMOL  CASOP  ENMOLC A   SO
                 OPE        NMOLC        AS  OP EN  MO LC     AS  OP
                OPENM       OL CA        SO  PE NM  OL CA     SOP EN
                OP EN      MO   LC       AS  OP ENMOL  CASO   PENMOL
                OP  EN     MO   LC       AS  OP EN     MO     LC ASO
               OP   E  NMOL  C  AS       OP  EN MO     LC     AS  OP
               OP  E   NMO   LC AS        OPEN  MO     LCASOP EN   M
               O  PEN   MO  LCA  SO
            OPE   NMO   L   CAS    OP
        OPENMOL  CASOP     ENMOL   CASOPE
     OPENMOLCA   SOPENMOLCASOPEN   MOLCASOPE
    OPENMOLCAS   OP           EN   MOL    CAS
    OPENMOLCAS       OP  ENM        O     LCA
    OPENMOLCAS    OPEN  MOLCASO     P  E  NMO
    OPENMOLCAS     OP               E  N  MOL
    OPENMOLCA   SO           PENM   O  L  CAS    OPEN    MO    LCAS
    OPENMOLCA   SOP           ENM   O  L  CAS   OP  EN  MOLC  AS   O
    OPENMOLCA   SOPE           NM      O  LCA   S      OP  EN MO
    OPENMOLC                AS         O  PEN   M      OL  CA  SOPE
    OPENMO        LCASOPE  NMOL        C  ASO   P      ENMOLC     AS
    OPE     NMO      LCA  SO     P     E   NM   OL  CA SO  PE N   MO
          OPENMOLCA            SOPE   NMO        LCAS  O    P  ENMO
     OPENMOLCASOPENMOLCASOPENMOLCASOPENMOLCA
        OPENMOLCASOPENMOLCASOPENMOLCASOPE
            OPENMOLCASOPENMOLCASOPENM
               OPENMOLCASOPENMOLCA        version: 21.06
                   OPENMOLCASO
                       OPE                tag: 24-g18de2a7

 OpenMolcas is free software; you can redistribute it and/or modify it
 under the terms of the GNU Lesser General Public License version 2.1.
 OpenMolcas is distributed in the hope that it will be useful, but it
 is provided "as is" and without any express or implied warranties.
 For more details see the full text of the license in the file
 LICENSE or in <http://www.gnu.org/licenses/>.

                 Copyright (C) The OpenMolcas Authors
           For the author list and the recommended citation,
                   consult the file CONTRIBUTORS.md

           *************************************************
           * pymolcas version py2.18                       *
           *   build 7a16d2f9e823a0c2ad601740b42a4b0e      *
           *   (after the EMIL interpreter by V. Veryazov) *
           *************************************************

configuration info
------------------
Host name: dirac.bu.edu (Linux)
C Compiler ID: GNU
C flags: -std=gnu99 -fopenmp
Fortran Compiler ID: GNU
Fortran flags: -fno-aggressive-loop-optimizations -cpp -fdefault-integer-8 -fopenmp
Definitions: _MOLCAS_;_I8_;_LINUX_
Parallel: OFF (GA=OFF)


   ----------------------------------------------------------------------
  |
  |             Project: xms
  |      Submitted from: /scratch/gayverjr/xms.3683462087
  |        Scratch area: /scratch/gayverjr/xms.3683462087
  |     Save outputs to: /home/gayverjr/opencap_examples
  |              Molcas: /home/qcsoftware/OpenMolcas/builds/molcas_latest
  |
  | Scratch area is NOT empty
  |
  |      MOLCAS_DRIVER = /home/qcsoftware/bin/pymolcas
  | MOLCAS_NEW_WORKDIR = YES
  |      MOLCAS_NPROCS = 16
  |      MOLCAS_SOURCE = /home/qcsoftware/OpenMolcas/Molcas_src
  |   MOLCAS_STRUCTURE = 0
  |
   ----------------------------------------------------------------------

++ ---------   Input file   ---------

&GATEWAY
Expert
Basis set
 N.aug-cc-pvtz
 N1  0.0  0.0  1.037
End of Basis
Basis set
X ..... / inline
   0.00   2
    3    3
               0.0288
               0.0144
               0.0072
      1.00000000             0.00000000             0.00000000
      0.00000000             1.00000000             0.00000000
      0.00000000             0.00000000             1.00000000
     3    3
               0.02455
               0.012275
               0.0061375
     1.00000000             0.00000000             0.00000000
     0.00000000             1.00000000             0.00000000
     0.00000000             0.00000000             1.00000000
     4    4
               0.0755
               0.03775
               0.018875
               1.0000E-08
      1.000000E+00           0.000000E+00           0.000000E+00       0.000000
      0.000000E+00           1.000000E+00           0.000000E+00       0.000000
      0.000000E+00           0.000000E+00           1.000000E+00       0.0000000
      0.0000000000           0.0000000000           0.0000000000       1.0000000
X1  0.000  0.000  0.000
End of basis
Symmetry
x y z

&SEWARD

&SCF

&RASSCF
Inactive = 3 0 0 0 2 0 0 0
Ras2= 0 1 1 0 0 6 5 0
Symmetry = 6
Charge = -1
SPIN=2
CIROOT = 10 10 1

&RASSI
TRD1

&CASPT2
Imaginary = 0.1
XMultistate = all

-- ----------------------------------

--- Start Module: gateway at Mon Jul  5 14:13:20 2021 ---

()()()()()()()()()()()()()()()()()()()()()()()()()()()()()()()()()()()()()()()()()()()()()()()()()()

                                              &GATEWAY

                                   only a single process is used
                       available to each process: 20 GB of memory, 16 threads
                                             pid: 19584
()()()()()()()()()()()()()()()()()()()()()()()()()()()()()()()()()()()()()()()()()()()()()()()()()()

 ###############################################################################
 ###############################################################################
 ###                                                                         ###
 ###                                                                         ###
 ###    WARNING:  EXPERT option is ON!                                       ###
 ###                                                                         ###
 ###                                                                         ###
 ###############################################################################
 ###############################################################################
 GuessOrb option turned off!

++    Symmetry information:
      ---------------------

                    --- Group Generators ---
                    Reflection in the yz-plane  
                    Reflection in the xz-plane  
                    Reflection in the xy-plane  

                    Character Table for D2h

                             E   s(yz) s(xz) C2(z) s(xy) C2(y) C2(x)   i  
                    ag       1     1     1     1     1     1     1     1  
                    b3u      1    -1     1    -1     1    -1     1    -1  x
                    b2u      1     1    -1    -1     1     1    -1    -1  y
                    b1g      1    -1    -1     1     1    -1    -1     1  xy, Rz
                    b1u      1     1     1     1    -1    -1    -1    -1  z
                    b2g      1    -1     1    -1    -1     1    -1     1  xz, Ry
                    b3g      1     1    -1    -1    -1    -1     1     1  yz, Rx
                    au       1    -1    -1     1    -1     1     1    -1  I
--


++    Basis set information:
      ----------------------


      Basis set label: N.AUG-CC-PVTZ.........

      Electronic valence basis set:
      ------------------
      Associated Effective Charge   7.000000 au
      Associated Actual Charge      7.000000 au
      Nuclear Model: Point charge

      Shell  nPrim  nBasis  Cartesian Spherical Contaminant
         s      11       5        X                  
         p       6       4        X                  
         d       3       3                 X         
         f       2       2                 X         


      Basis set label: X...............................................................................

      Electronic valence basis set:
      ------------------
      Associated Effective Charge   0.000000 au
      Associated Actual Charge      0.000000 au
      Nuclear Model: Point charge

      Shell  nPrim  nBasis  Cartesian Spherical Contaminant
         s       3       3        X                  
         p       3       3        X                  
         d       4       4                 X         
--


++    Molecular structure info:
      -------------------------

                    ************************************************ 
                    **** Cartesian Coordinates / Bohr, Angstrom **** 
                    ************************************************ 

     Center  Label                x              y              z                     x              y              z
        1      N1               0.000000       0.000000       1.037000              0.000000       0.000000       0.548757
        2      N1               0.000000       0.000000      -1.037000              0.000000       0.000000      -0.548757
        3      X1               0.000000       0.000000       0.000000              0.000000       0.000000       0.000000

                    *************************************** 
                    *    InterNuclear Distances / Bohr    * 
                    *************************************** 

               1 N1            2 N1            3 X1    
    1 N1       0.000000
    2 N1       2.074000        0.000000
    3 X1       1.037000        1.037000        0.000000

                    ******************************************* 
                    *    InterNuclear Distances / Angstrom    * 
                    ******************************************* 

               1 N1            2 N1            3 X1    
    1 N1       0.000000
    2 N1       1.097514        0.000000
    3 X1       0.548757        0.548757        0.000000

                    ************************************** 
                    *    Valence Bond Angles / Degree    * 
                    ************************************** 
                          Atom centers                 Phi
                      2 N1       1 N1       3 X1         0.00
                      1 N1       2 N1       3 X1         0.00
                      1 N1       3 X1       2 N1       180.00
--


            Nuclear Potential Energy             23.62584378 au

--- Stop Module: gateway at Mon Jul  5 14:13:20 2021 /rc=_RC_ALL_IS_WELL_ ---
*** files: xmldump
    saved to directory /home/gayverjr/opencap_examples

--- Start Module: seward at Mon Jul  5 14:13:20 2021 ---

()()()()()()()()()()()()()()()()()()()()()()()()()()()()()()()()()()()()()()()()()()()()()()()()()()

                                              &SEWARD

                                   only a single process is used
                       available to each process: 20 GB of memory, 16 threads
                                             pid: 19605
()()()()()()()()()()()()()()()()()()()()()()()()()()()()()()()()()()()()()()()()()()()()()()()()()()

               SEWARD will generate:
                  Multipole Moment integrals up to order  2
                  Kinetic Energy integrals
                  Nuclear Attraction integrals (point charge)
                  One-Electron Hamiltonian integrals
                  Velocity integrals
                  Orbital angular momentum around ( 0.0000  0.0000  0.0000 )
                  Velocity quadrupole around ( 0.0000  0.0000  0.0000 )
                  Two-Electron Repulsion integrals

                   Integrals are discarded if absolute value <: 0.10E-13
                   Integral cutoff threshold is set to       <: 0.10E-15

                    Unitary symmetry adaptation


            Nuclear Potential Energy             23.62584378 au


      Basis set specifications :
      Symmetry species         ag   b3u  b2u  b1g  b1u  b2g  b3g  au 
      Basis functions           30   14   14    9   22   15   15    5


  Input file to MOLDEN was generated!

--- Stop Module: seward at Mon Jul  5 14:13:23 2021 /rc=_RC_ALL_IS_WELL_ ---
*** files: xms.GssOrb xms.guessorb.h5 xms.guessorb.molden xmldump
    saved to directory /home/gayverjr/opencap_examples
--- Module seward spent 2 seconds ---

*** symbolic link created: INPORB -> xms.GssOrb
--- Start Module: scf at Mon Jul  5 14:13:23 2021 ---

()()()()()()()()()()()()()()()()()()()()()()()()()()()()()()()()()()()()()()()()()()()()()()()()()()

                                                &SCF

                                   only a single process is used
                       available to each process: 20 GB of memory, 16 threads
                                             pid: 19648
()()()()()()()()()()()()()()()()()()()()()()()()()()()()()()()()()()()()()()()()()()()()()()()()()()

++    Input section:
      --------------

      Header of the integral files:
      
       Integrals generated by Gateway/Seward, Mon Jul  5 14:13:21 2021


      Cartesian coordinates in Angstrom:
      -----------------------------------------------------
      No.  Label        X            Y            Z        
      -----------------------------------------------------
       1   N1         0.00000000   0.00000000   0.54875677
       2   X1         0.00000000   0.00000000   0.00000000
       3   N1         0.00000000   0.00000000  -0.54875677
      -----------------------------------------------------
      Nuclear repulsion energy =   23.62584378
--

++    Orbital specifications:
      -----------------------

      Symmetry species               1   2   3   4   5   6   7   8
                                    ag b3u b2u b1g b1u b2g b3g  au
      Frozen orbitals                0   0   0   0   0   0   0   0
      Occupied orbitals              3   1   1   0   2   0   0   0
      Secondary orbitals            27  13  13   9  20  15  15   5
      Deleted orbitals               0   0   0   0   0   0   0   0
      Total number of orbitals      30  14  14   9  22  15  15   5
      Number of basis functions     30  14  14   9  22  15  15   5
--

      Molecular charge                           0.000

++    Optimization specifications:
      ----------------------------

      SCF Algorithm: Conventional
      Minimized density differences are used
      Number of density matrices in core                5
      Maximum number of NDDO SCF iterations           400
      Maximum number of HF SCF iterations             400
      Threshold for SCF energy change            0.10E-08
      Threshold for density matrix               0.10E-03
      Threshold for Fock matrix                  0.15E-03
      Threshold for linear dependence            0.10E-08
      Threshold at which DIIS is turned on       0.15E+00
      Threshold at which QNR/C2DIIS is turned on 0.75E-01
      Threshold for Norm(delta) (QNR/C2DIIS)     0.20E-04
      DIIS extrapolation of the SCF procedure
      All orbitals punched on: SCFORB
--

      Input vectors read from INPORB
      Orbital file label: *Guess orbitals


++ Convergence information
                                   SCF        iterations: Energy and convergence statistics

Iter     Tot. SCF        One-elec.       Two-elec.     Energy      Max Dij or  Max Fij      DNorm      TNorm      AccCon     Time
         Energy          Energy          Energy        Change      Delta Norm                                                in Sec.
   1  -108.739180490  -192.739709459    60.374685189   0.00E+00    0.14E+00*   0.17E+00*    0.53E+01   0.90E+02   None         0.
   2  -108.974351625  -194.849566040    62.249370635  -0.24E+00*   0.41E-01*   0.37E-01*    0.30E+01   0.91E+02   EDIIS        0.
   3  -108.984137830  -194.116120637    61.506139026  -0.98E-02*   0.94E-02*   0.11E-01*    0.68E+00   0.90E+02   EDIIS        0.
   4  -108.984808322  -194.303273735    61.692621632  -0.67E-03*   0.40E-02*   0.21E-02*    0.11E+00   0.90E+02   c2DIIS       0.
   5  -108.984862160  -194.254587992    61.643882052  -0.54E-04*   0.12E-02*   0.67E-03*    0.14E-01   0.90E+02   QNRc2DIIS    0.
   6  -108.984866923  -194.258161520    61.647450817  -0.48E-05*   0.60E-03*   0.20E-03*    0.17E-02   0.90E+02   QNRc2DIIS    0.
   7  -108.984867459  -194.256051061    61.645339822  -0.54E-06*   0.41E-04*   0.29E-04     0.16E-03   0.90E+02   QNRc2DIIS    0.
   8  -108.984867465  -194.256603702    61.645892458  -0.59E-08*   0.57E-05    0.31E-05     0.23E-04   0.90E+02   QNRc2DIIS    0.
   9  -108.984867465  -194.256602417    61.645891173  -0.82E-10    0.26E-06    0.10E-06     0.44E-05   0.90E+02   QNRc2DIIS    0.

       Convergence after  9 Macro Iterations
--

 *****************************************************************************************************************************
 *                                                                                                                           *
 *                                             SCF/KS-DFT Program, Final results                                             *
 *                                                                                                                           *
 *                                                                                                                           *
 *                                                                                                                           *
 *                                                       Final Results                                                       *
 *                                                                                                                           *
 *****************************************************************************************************************************

::    Total SCF energy                               -108.9848674646
      One-electron energy                            -194.2566024173
      Two-electron energy                              61.6458911725
      Nuclear repulsion energy                         23.6258437801
      Kinetic energy (interpolated)                   108.7375378741
      Virial theorem                                    1.0022745557
      Total spin, S(S+1)                                0.0000000000
      Total spin, S                                     0.0000000000
      Max non-diagonal density matrix element           0.0000001982
      Max non-diagonal Fock matrix element              0.0000000359


      All orbitals with orbital energies smaller than  E(LUMO)+0.5 are printed

++    Molecular orbitals:
      -------------------

      Title: SCF orbitals

      Molecular orbitals for symmetry species 1: ag 

          Orbital            1         2         3         4         5         6         7         8         9        10    
          Energy          -15.6853   -1.4725   -0.6345    0.0000    0.0000    0.0090    0.0416    0.0508    0.0538    0.1184
          Occ. No.          2.0000    2.0000    2.0000    0.0000    0.0000    0.0000    0.0000    0.0000    0.0000    0.0000

        1 N1     1s         0.9998    0.0239    0.0065    0.0000    0.0000   -0.0008    0.0003   -0.0100    0.0000   -0.0048
        2 N1     1s         0.0019   -0.8988    0.3408    0.0000    0.0000   -0.0324    0.0721   -0.0463    0.0000   -0.1533
        3 N1     1s         0.0014    0.0049   -0.0013   -0.0000    0.0000    0.0002    0.0019   -0.0052    0.0000    0.0005
        4 N1     1s         0.0018    0.1792    0.2258   -0.0000    0.0000    0.0008    0.0640   -0.4626    0.0000    0.0010
        5 N1     1s         0.0027   -0.0170    0.1412   -0.0000    0.0000   -1.4272   -4.1465   -5.4290   -0.0000  -10.8155
        6 N1     2pz       -0.0072    0.4854    0.9868   -0.0000   -0.0000   -0.0324    0.0717    0.0028    0.0000   -0.1254
        7 N1     2pz        0.0036   -0.0538   -0.0669    0.0000   -0.0000    0.0028    0.0028    0.0257   -0.0000    0.0156
        8 N1     2pz        0.0050   -0.1851   -0.1257   -0.0000    0.0000   -0.0098   -0.0363   -0.2477    0.0000   -0.0944
        9 N1     2pz        0.0103   -0.0942    0.1769   -0.0000    0.0000   -1.4521   -4.4762   -8.1564    0.0000  -10.9995
       10 N1     3d0        0.0008   -0.0287   -0.0258   -0.0000    0.0000   -0.0001   -0.0015   -0.0019   -0.0000   -0.0024
       11 N1     3d0       -0.0014   -0.0217   -0.0211    0.0000   -0.0000    0.0013    0.0089    0.0102   -0.0000    0.0088
       12 N1     3d0       -0.0004    0.0366    0.0106    0.0000   -0.0000   -0.0321   -0.0660    0.1726   -0.0000   -0.2131
       13 N1     3d2+       0.0000    0.0000    0.0000    0.0000    0.0000    0.0000    0.0000    0.0000   -0.0017    0.0000
       14 N1     3d2+      -0.0000   -0.0000   -0.0000    0.0000    0.0000   -0.0000   -0.0000   -0.0000    0.0168   -0.0000
       15 N1     3d2+       0.0000    0.0000    0.0000   -0.0000   -0.0000    0.0000    0.0000    0.0000   -0.0965    0.0000
       16 N1     4f0        0.0002    0.0107    0.0082    0.0000   -0.0000   -0.0007   -0.0016    0.0004    0.0000   -0.0039
       17 N1     4f0        0.0006   -0.0071   -0.0037   -0.0000    0.0000    0.0026    0.0035   -0.0188    0.0000    0.0153
       18 N1     4f2+      -0.0000    0.0000    0.0000    0.0000    0.0000    0.0000   -0.0000    0.0000    0.0002   -0.0000
       19 N1     4f2+      -0.0000   -0.0000    0.0000   -0.0000   -0.0000   -0.0000   -0.0000   -0.0000    0.0004    0.0000
       20 X1     1s        -0.0037    0.0271   -0.1254    0.0000   -0.0000    2.7106    8.3586    6.8682    0.0000   19.1475
       21 X1     1s        -0.0002    0.0030    0.0273   -0.0000   -0.0000   -2.9994   -7.9085   -1.6572   -0.0000  -10.3282
       22 X1     1s         0.0002   -0.0015   -0.0054   -0.0000    0.0000    2.6097    3.4882    0.2149    0.0000    2.9819
       23 X1     3d0       -0.0023   -0.0038   -0.0516    0.0000   -0.0000    0.2032    0.6036    0.6032   -0.0000    1.4952
       24 X1     3d0       -0.0025    0.0327   -0.0344    0.0000   -0.0000    0.4982    1.6296    3.6656    0.0000    3.7257
       25 X1     3d0        0.0003   -0.0051    0.0013   -0.0000    0.0000   -0.1153   -0.3901   -1.9902   -0.0000   -0.4797
       26 X1     3d0       -0.0000    0.0000    0.0000   -0.0000    1.0000    0.0000    0.0000    0.0000   -0.0000    0.0000
       27 X1     3d2+      -0.0000   -0.0000   -0.0000    0.0000    0.0000   -0.0000   -0.0000   -0.0000    0.4296   -0.0000
       28 X1     3d2+       0.0000    0.0000    0.0000   -0.0000   -0.0000    0.0000    0.0000    0.0000   -0.9758    0.0000
       29 X1     3d2+      -0.0000   -0.0000   -0.0000    0.0000    0.0000    0.0000   -0.0000   -0.0000    1.5672   -0.0000
       30 X1     3d2+      -0.0000   -0.0000   -0.0000    1.0000    0.0000    0.0000   -0.0000   -0.0000   -0.0000   -0.0000

          Orbital           11        12        13        14        15    
          Energy            0.1403    0.1566    0.2787    0.3045    0.3536
          Occ. No.          0.0000    0.0000    0.0000    0.0000    0.0000

        1 N1     1s        -0.0181   -0.0000   -0.0136    0.0334    0.0000
        2 N1     1s        -0.0224   -0.0000    0.0702    0.3564    0.0000
        3 N1     1s        -0.0116   -0.0000   -0.0162    0.0289    0.0000
        4 N1     1s        -1.0583   -0.0000   -1.3151    2.3131    0.0000
        5 N1     1s       -12.7814   -0.0000  -28.8203   -0.2786   -0.0000
        6 N1     2pz       -0.0374    0.0000    0.1839    0.0430    0.0000
        7 N1     2pz        0.0647    0.0000    0.0992   -0.0670   -0.0000
        8 N1     2pz       -0.5478   -0.0000   -0.9362    0.8098    0.0000
        9 N1     2pz      -19.4742   -0.0000  -40.8411    8.7271   -0.0000
       10 N1     3d0        0.0014   -0.0000   -0.0157    0.0105   -0.0000
       11 N1     3d0        0.0426    0.0000    0.0729    0.0184   -0.0000
       12 N1     3d0        0.3778    0.0000    0.0643   -1.0248   -0.0000
       13 N1     3d2+       0.0000    0.0078    0.0000   -0.0000   -0.0004
       14 N1     3d2+      -0.0000   -0.0239   -0.0000    0.0000    0.1186
       15 N1     3d2+       0.0000    0.2567    0.0000   -0.0000   -0.5299
       16 N1     4f0       -0.0006   -0.0000   -0.0050   -0.0111    0.0000
       17 N1     4f0       -0.0436   -0.0000   -0.0387    0.0850    0.0000
       18 N1     4f2+       0.0000   -0.0008   -0.0000   -0.0000   -0.0001
       19 N1     4f2+      -0.0000   -0.0026   -0.0000    0.0000   -0.0036
       20 X1     1s        14.9966    0.0000   35.2257    2.8524    0.0000
       21 X1     1s        -2.9767    0.0000   -9.1684   -3.8173   -0.0000
       22 X1     1s         0.4175   -0.0000    1.8881    1.1466    0.0000
       23 X1     3d0        1.5365    0.0000    5.0631    0.8181    0.0000
       24 X1     3d0        8.4889    0.0000   12.4964   -4.0978    0.0000
       25 X1     3d0       -2.0241    0.0000   -1.4599    0.8873   -0.0000
       26 X1     3d0        0.0000   -0.0000    0.0000   -0.0000   -0.0000
       27 X1     3d2+      -0.0000   -1.0855   -0.0000    0.0000    2.9661
       28 X1     3d2+       0.0000    2.6606    0.0000   -0.0000   -2.7371
       29 X1     3d2+      -0.0000   -1.4090   -0.0000    0.0000    0.9872
       30 X1     3d2+      -0.0000    0.0000   -0.0000    0.0000   -0.0000

      Molecular orbitals for symmetry species 2: b3u

          Orbital            1         2         3         4         5    
          Energy           -0.6145    0.0118    0.0411    0.1058    0.2623
          Occ. No.          2.0000    0.0000    0.0000    0.0000    0.0000

        1 N1     2px        0.8877   -0.0128   -0.0535   -0.1049    0.2963
        2 N1     2px       -0.0106   -0.0048    0.0127   -0.0276   -0.0879
        3 N1     2px       -0.0526    0.0181   -0.0505    0.1024    0.4247
        4 N1     2px       -0.0035   -0.1409    0.3373   -1.0222   -2.8889
        5 N1     3d1+      -0.0284    0.0006    0.0019    0.0044   -0.0114
        6 N1     3d1+      -0.0518    0.0011    0.0046    0.0093   -0.0227
        7 N1     3d1+      -0.0102    0.0029   -0.0060    0.0172    0.0153
        8 N1     4f1+       0.0115    0.0000   -0.0013   -0.0004    0.0080
        9 N1     4f1+       0.0013   -0.0007    0.0016   -0.0042   -0.0056
       10 N1     4f3+      -0.0000   -0.0000    0.0000   -0.0000    0.0000
       11 N1     4f3+       0.0000    0.0000   -0.0000    0.0000   -0.0000
       12 X1     2px        0.0237    0.6302   -1.7010    4.6366    5.2563
       13 X1     2px       -0.0161   -1.3465    3.6350   -4.2882   -3.2098
       14 X1     2px        0.0053    1.7965   -1.9506    1.5053    0.9613

      Molecular orbitals for symmetry species 3: b2u

          Orbital            1         2         3         4         5    
          Energy           -0.6145    0.0118    0.0411    0.1058    0.2623
          Occ. No.          2.0000    0.0000    0.0000    0.0000    0.0000

        1 N1     2py        0.8877   -0.0128   -0.0535   -0.1049    0.2963
        2 N1     2py       -0.0106   -0.0048    0.0127   -0.0276   -0.0879
        3 N1     2py       -0.0526    0.0181   -0.0505    0.1024    0.4247
        4 N1     2py       -0.0035   -0.1409    0.3373   -1.0222   -2.8889
        5 N1     3d1-      -0.0284    0.0006    0.0019    0.0044   -0.0114
        6 N1     3d1-      -0.0518    0.0011    0.0046    0.0093   -0.0227
        7 N1     3d1-      -0.0102    0.0029   -0.0060    0.0172    0.0153
        8 N1     4f3-       0.0000    0.0000   -0.0000    0.0000   -0.0000
        9 N1     4f3-      -0.0000   -0.0000    0.0000   -0.0000    0.0000
       10 N1     4f1-       0.0115    0.0000   -0.0013   -0.0004    0.0080
       11 N1     4f1-       0.0013   -0.0007    0.0016   -0.0042   -0.0056
       12 X1     2py        0.0237    0.6302   -1.7010    4.6366    5.2563
       13 X1     2py       -0.0161   -1.3465    3.6350   -4.2882   -3.2098
       14 X1     2py        0.0053    1.7965   -1.9506    1.5053    0.9613

      Molecular orbitals for symmetry species 4: b1g

          Orbital            1         2         3         4    
          Energy            0.0000    0.0538    0.1566    0.3536
          Occ. No.          0.0000    0.0000    0.0000    0.0000

        1 N1     3d2-       0.0000   -0.0017    0.0078   -0.0004
        2 N1     3d2-       0.0000    0.0168   -0.0239    0.1186
        3 N1     3d2-      -0.0000   -0.0965    0.2567   -0.5299
        4 N1     4f2-       0.0000    0.0002   -0.0008   -0.0001
        5 N1     4f2-      -0.0000    0.0004   -0.0026   -0.0036
        6 X1     3d2-       0.0000    0.4296   -1.0855    2.9661
        7 X1     3d2-      -0.0000   -0.9758    2.6606   -2.7371
        8 X1     3d2-       0.0000    1.5672   -1.4090    0.9872
        9 X1     3d2-       1.0000   -0.0000    0.0000   -0.0000

      Molecular orbitals for symmetry species 5: b1u

          Orbital            1         2         3         4         5         6         7    
          Energy          -15.6817   -0.7795    0.0119    0.0415    0.1044    0.2027    0.3305
          Occ. No.          2.0000    2.0000    0.0000    0.0000    0.0000    0.0000    0.0000

        1 N1     1s         0.9994    0.0062   -0.0008   -0.0004   -0.0045    0.0064    0.0098
        2 N1     1s        -0.0015    0.9299   -0.0163    0.0450   -0.1168    0.1600   -0.2152
        3 N1     1s         0.0008    0.0002    0.0002    0.0016   -0.0013   -0.0151   -0.0456
        4 N1     1s         0.0310    0.3152    0.1198    0.2979    1.4455   10.0373   15.2159
        5 N1     1s         0.0113    0.0758    1.5470    3.8012   13.2440   57.8396   60.0542
        6 N1     2pz       -0.0044    0.4555   -0.0049    0.0199   -0.0342    0.0761   -0.0564
        7 N1     2pz        0.0008   -0.0315   -0.0033   -0.0068   -0.0472   -0.3350   -0.5307
        8 N1     2pz       -0.0123   -0.1640   -0.0640   -0.1336   -0.8234   -5.7218   -9.3527
        9 N1     2pz       -0.0026   -0.0101   -0.6924   -1.6893   -5.6581  -19.5735  -15.0036
       10 N1     3d0        0.0010   -0.0044    0.0003   -0.0004    0.0023   -0.0007    0.0047
       11 N1     3d0        0.0013   -0.0016    0.0010   -0.0031    0.0287    0.2297    0.4539
       12 N1     3d0        0.0023    0.0198    0.0283    0.0647    0.2599    1.3070    1.7529
       13 N1     3d2+       0.0000   -0.0000   -0.0000   -0.0000   -0.0000   -0.0000   -0.0000
       14 N1     3d2+      -0.0000    0.0000   -0.0000    0.0000    0.0000    0.0000    0.0000
       15 N1     3d2+       0.0000   -0.0000    0.0000    0.0000    0.0000    0.0000    0.0000
       16 N1     4f0       -0.0007   -0.0015    0.0003    0.0009   -0.0000   -0.0132   -0.0325
       17 N1     4f0       -0.0000    0.0003   -0.0031   -0.0066   -0.0218   -0.0653   -0.0568
       18 N1     4f2+       0.0000   -0.0000    0.0000   -0.0000    0.0000    0.0000    0.0000
       19 N1     4f2+       0.0000    0.0000   -0.0000   -0.0000   -0.0000   -0.0000   -0.0000
       20 X1     2pz        0.0005    0.0063    0.9763    2.5932    7.0861    9.9344    2.1554
       21 X1     2pz       -0.0001   -0.0040   -1.5674   -4.0951   -5.1402   -3.8983    0.3293
       22 X1     2pz        0.0000    0.0013    1.8785    2.0548    1.6618    0.9371   -0.2424

      Molecular orbitals for symmetry species 6: b2g

          Orbital            1         2         3         4         5    
          Energy            0.0000    0.0493    0.1189    0.1730    0.3156
          Occ. No.          0.0000    0.0000    0.0000    0.0000    0.0000

        1 N1     2px        0.0000    0.0549    0.4731   -0.6572   -0.4632
        2 N1     2px       -0.0000    0.0125   -0.0166   -0.0237    0.0186
        3 N1     2px       -0.0000    0.5238   -0.5585   -1.3004    1.7392
        4 N1     2px       -0.0000   12.1917  -18.6690  -30.0803   58.2658
        5 N1     3d1+      -0.0000    0.0033    0.0055   -0.0159    0.0040
        6 N1     3d1+       0.0000   -0.0422    0.0969    0.0624   -0.2192
        7 N1     3d1+       0.0000   -0.1929    0.2675    0.3289   -0.3772
        8 N1     4f1+      -0.0000    0.0007   -0.0051    0.0014    0.0134
        9 N1     4f1+      -0.0000    0.0289   -0.0467   -0.0505    0.1023
       10 N1     4f3+      -0.0000   -0.0000    0.0000    0.0000   -0.0000
       11 N1     4f3+      -0.0000    0.0000   -0.0000   -0.0000    0.0000
       12 X1     3d1+       0.0000   -0.8184    1.3687    2.0532   -5.5915
       13 X1     3d1+       0.0000   -4.2552    6.6295    9.4746  -14.6439
       14 X1     3d1+      -0.0000    2.0912   -1.6772   -1.7747    1.8044
       15 X1     3d1+       1.0000   -0.0000    0.0000    0.0000   -0.0000

      Molecular orbitals for symmetry species 7: b3g

          Orbital            1         2         3         4         5    
          Energy            0.0000    0.0493    0.1189    0.1730    0.3156
          Occ. No.          0.0000    0.0000    0.0000    0.0000    0.0000

        1 N1     2py        0.0000    0.0549    0.4731   -0.6572   -0.4632
        2 N1     2py       -0.0000    0.0125   -0.0166   -0.0237    0.0186
        3 N1     2py       -0.0000    0.5238   -0.5585   -1.3004    1.7392
        4 N1     2py       -0.0000   12.1917  -18.6690  -30.0803   58.2658
        5 N1     3d1-      -0.0000    0.0033    0.0055   -0.0159    0.0040
        6 N1     3d1-       0.0000   -0.0422    0.0969    0.0624   -0.2192
        7 N1     3d1-       0.0000   -0.1929    0.2675    0.3289   -0.3772
        8 N1     4f3-      -0.0000    0.0000   -0.0000   -0.0000    0.0000
        9 N1     4f3-      -0.0000   -0.0000    0.0000    0.0000   -0.0000
       10 N1     4f1-      -0.0000    0.0007   -0.0051    0.0014    0.0134
       11 N1     4f1-      -0.0000    0.0289   -0.0467   -0.0505    0.1023
       12 X1     3d1-       0.0000   -0.8184    1.3687    2.0532   -5.5915
       13 X1     3d1-       0.0000   -4.2552    6.6295    9.4746  -14.6439
       14 X1     3d1-      -0.0000    2.0912   -1.6772   -1.7747    1.8044
       15 X1     3d1-       1.0000   -0.0000    0.0000    0.0000   -0.0000
--


++    Molecular charges:
      ------------------

      Mulliken charges per centre and basis function type
      ---------------------------------------------------

                N1      X1    
      1s       4.0417 -0.1005
      2px      0.9590  0.0069
      2pz      1.0231  0.0023
      2py      0.9590  0.0069
      3d2+     0.0000 -0.0000
      3d1+     0.0346  0.0000
      3d0      0.0011 -0.0371
      3d1-     0.0346  0.0000
      3d2-     0.0000  0.0000
      4f3+     0.0000  0.0000
      4f2+     0.0000  0.0000
      4f1+     0.0030  0.0000
      4f0      0.0018  0.0000
      4f1-     0.0030  0.0000
      4f2-     0.0000  0.0000
      4f3-     0.0000  0.0000
      Total    7.0607 -0.1215

      N-E     -0.0607  0.1215

      Total electronic charge=   14.000000

      Total            charge=   -0.000000
--


++    Molecular properties:
      ---------------------

      Charge (e):
                      =   -0.0000
      Dipole Moment (Debye):
      Origin of the operator (Ang)=    0.0000    0.0000    0.0000
                   X=  0.0000E+00               Y=  0.0000E+00               Z=  0.0000E+00           Total=  0.0000E+00
      Quadrupole Moment (Debye*Ang):
      Origin of the operator (Ang)=    0.0000    0.0000    0.0000
                  XX= -1.0396E+01              XY=  0.0000E+00              XZ=  0.0000E+00              YY= -1.0396E+01
                  YZ=  0.0000E+00              ZZ= -1.1646E+01
      In traceless form (Debye*Ang)
                  XX=  6.2522E-01              XY=  0.0000E+00              XZ=  0.0000E+00              YY=  6.2522E-01
                  YZ=  0.0000E+00              ZZ= -1.2504E+00
--


  Input file to MOLDEN was generated!

 ###############################################################################
 ###############################################################################
 ###                                                                         ###
 ###                                                                         ###
 ###    WARNING: RunFile label nBas                                          ###
 ###    was used       72 times                                              ###
 ###                                                                         ###
 ###                                                                         ###
 ###############################################################################
 ###############################################################################
--- Stop Module: scf at Mon Jul  5 14:13:24 2021 /rc=_RC_ALL_IS_WELL_ ---
*** files: xms.scf.molden xms.ScfOrb xms.scf.h5 xmldump
    saved to directory /home/gayverjr/opencap_examples
--- Module scf spent 1 second ---

*** symbolic link created: INPORB -> xms.ScfOrb
--- Start Module: rasscf at Mon Jul  5 14:13:24 2021 ---

()()()()()()()()()()()()()()()()()()()()()()()()()()()()()()()()()()()()()()()()()()()()()()()()()()

                                              &RASSCF

                                   only a single process is used
                       available to each process: 20 GB of memory, 16 threads
                                             pid: 19688
()()()()()()()()()()()()()()()()()()()()()()()()()()()()()()()()()()()()()()()()()()()()()()()()()()


      Header of the ONEINT file:
      --------------------------
      
      Integrals generated by Gateway/Seward, Mon Jul  5 14:13:21 2021


      OrdInt status: non-squared


      Cartesian coordinates in Angstrom:
      -----------------------------------------------------
      No.  Label        X            Y            Z        
      -----------------------------------------------------
       1   N1         0.00000000   0.00000000   0.54875677
       2   X1         0.00000000   0.00000000   0.00000000
       3   N1         0.00000000   0.00000000  -0.54875677
      -----------------------------------------------------
      Nuclear repulsion energy =   23.62584378

++    Wave function specifications:
      -----------------------------

      Number of closed shell electrons          10
      Number of electrons in active shells       5
      Max number of holes in RAS1 space          0
      Max nr of electrons in RAS3 space          0
      Number of inactive orbitals                5
      Number of active orbitals                 13
      Number of secondary orbitals             106
      Spin quantum number                      0.5
      State symmetry                             6
--

++    Orbital specifications:
      -----------------------

      Symmetry species                           1   2   3   4   5   6   7   8
                                                ag b3u b2u b1g b1u b2g b3g  au
      Frozen orbitals                            0   0   0   0   0   0   0   0
      Inactive orbitals                          3   0   0   0   2   0   0   0
      Active orbitals                            0   1   1   0   0   6   5   0
      RAS1 orbitals                              0   0   0   0   0   0   0   0
      RAS2 orbitals                              0   1   1   0   0   6   5   0
      RAS3 orbitals                              0   0   0   0   0   0   0   0
      Secondary orbitals                        27  13  13   9  20   9  10   5
      Deleted orbitals                           0   0   0   0   0   0   0   0
      Number of basis functions                 30  14  14   9  22  15  15   5
--

++    CI expansion specifications:
      ----------------------------

      Number of CSFs                          3701
      Number of determinants                  6156
      Number of root(s) required                10
      Root chosen for geometry opt.             10
      CI roots used                              1     2     3     4     5     6     7     8     9    10
      weights                                0.100 0.100 0.100 0.100 0.100 0.100 0.100 0.100 0.100 0.100
      highest root included in the CI           10
      max. size of the explicit Hamiltonian    200
--

++    Optimization specifications:
      ----------------------------

      RASSCF algorithm: Conventional
      Maximum number of macro iterations       200
      Maximum number of SX iterations          100
      Threshold for RASSCF energy            0.100E-07
      Threshold for max MO rotation          0.100E+00
      Threshold for max BLB element          0.100E-03
      Level shift parameter                  0.500E+00
      Make Quasi-Newton update
--

      Orbitals from runfile: scf orbitals
      The MO-coefficients are taken from scf orbitals on runfile

      Total molecular charge   -1.00

      ************************************************************************************************************************
      *                                                                                                                      *
      *                                            Wave function control section                                             *
      *                                                                                                                      *
      ************************************************************************************************************************


                                         RASSCF iterations: Energy and convergence statistics
                                         ----------------------------------------------------

      Iter CI   SX   CI       RASSCF       Energy    max ROT     max BLB   max BLB  Level Ln srch  Step   QN   Walltime
          iter iter root      energy       change     param      element    value   shift minimum  type update hh:mm:ss
 Nr of preliminary CI iterations:   6
        1   1   29    0  -108.65394596    0.00E+00   0.19E+00*   2  11 5 -0.42E-01*  0.22   0.00    SX    NO    0:00:01
        2   5   36    0  -108.68129846   -0.27E-01* -0.92E-01    3  24 1 -0.15E-01*  0.21   0.00    SX    NO    0:00:01
        3   3   34    0  -108.68476162   -0.35E-02*  0.75E-01    2  11 5 -0.69E-02*  0.21   0.00    SX    NO    0:00:00
        4   4   33    0  -108.68555223   -0.79E-03* -0.64E-01    3  19 1  0.29E-02*  0.21   0.00    SX    NO    0:00:01
        5   6   32    0  -108.68591568   -0.36E-03* -0.74E-01    1   7 3  0.14E-02*  0.21   2.50    LS   YES    0:00:01
        6   4   31    0  -108.68620240   -0.29E-03* -0.76E-01    3   8 7  0.13E-02*  0.21   2.35    LS   YES    0:00:01
        7  11   32    0  -108.68633372   -0.13E-03* -0.59E-01    3  19 1 -0.33E-02*  0.21   1.27    QN   YES    0:00:01
        8  23   32    0  -108.68653947   -0.21E-03* -0.10E+00*   1  13 3 -0.25E-02*  0.21   1.33    QN   YES    0:00:02
        9  14   27    0  -108.68671957   -0.18E-03* -0.80E-02    1   7 3 -0.11E-02*  0.25   1.09    QN   YES    0:00:01
       10   3   27    0  -108.68673322   -0.14E-04* -0.39E-02    3  10 1  0.38E-03*  0.25   1.49    LS   YES    0:00:00
       11   6   28    0  -108.68673466   -0.14E-05*  0.37E-02    1   7 3  0.42E-03*  0.25   0.92    QN   YES    0:00:01
       12   7   25    0  -108.68673687   -0.22E-05*  0.32E-02    3  19 1  0.16E-03*  0.25   1.86    LS   YES    0:00:01
       13  20   18    0  -108.68673749   -0.63E-06*  0.22E-02    1  13 2  0.18E-03*  0.25   1.04    QN   YES    0:00:02
       14   6   28    0  -108.68673836   -0.86E-06*  0.33E-02    1  13 3 -0.14E-03*  0.25   2.49    LS   YES    0:00:01
       15   7   20    0  -108.68673883   -0.47E-06*  0.22E-02    3  19 1 -0.14E-03*  0.25   1.00    QN   YES    0:00:01
       16   6   18    0  -108.68673930   -0.48E-06* -0.23E-02    3  19 1 -0.82E-04   0.25   1.53    QN   YES    0:00:01
       17   6   22    0  -108.68673961   -0.31E-06* -0.25E-02    4  11 7 -0.60E-04   0.25   1.91    QN   YES    0:00:01
       18   6   27    0  -108.68674004   -0.43E-06* -0.60E-02    3  19 1  0.84E-04   0.25   2.26    QN   YES    0:00:01
       19   6   27    0  -108.68674091   -0.87E-06* -0.16E-01    3  19 1  0.18E-03*  0.25   2.47    QN   YES    0:00:01
       20  15   31    0  -108.68674306   -0.22E-05*  0.45E-01    3  19 1  0.31E-03*  0.25   2.48    QN   YES    0:00:02
       21   8   31    0  -108.68674888   -0.58E-05* -0.69E-01    3  19 1  0.57E-03*  0.25   1.54    QN   YES    0:00:01
       22   7   32    0  -108.68675646   -0.76E-05*  0.50E-01    3  19 1  0.83E-03*  0.25   1.18    QN   YES    0:00:01
       23   7   32    0  -108.68676878   -0.12E-04*  0.14E+00*   3  19 1  0.88E-03*  0.25   2.50    QN   YES    0:00:01
       24  11   33    0  -108.68681161   -0.43E-04* -0.11E+00*   3  16 1 -0.93E-03*  0.25   1.76    QN   YES    0:00:02
       25   9   35    0  -108.68685330   -0.42E-04* -0.84E-01    3  16 1 -0.78E-03*  0.25   2.07    QN   YES    0:00:01
       26  10   35    0  -108.68690051   -0.47E-04* -0.65E-01    6   7 6 -0.41E-03*  0.25   2.11    LS   YES    0:00:01
       27   9   36    0  -108.68691747   -0.17E-04* -0.22E-01    3  10 1 -0.48E-03*  0.25   1.46    QN   YES    0:00:01
       28   9   34    0  -108.68693962   -0.22E-04*  0.20E-01    1  13 3 -0.53E-03*  0.25   1.94    LS   YES    0:00:02
       29   5   34    0  -108.68694657   -0.70E-05* -0.10E-01    3  19 1 -0.62E-03*  0.25   1.10    QN   YES    0:00:01
       30  13   34    0  -108.68695641   -0.98E-05*  0.14E-01    1  13 3 -0.32E-03*  0.25   2.50    LS   YES    0:00:01
       31  13   32    0  -108.68696291   -0.65E-05*  0.15E-01    2  13 5 -0.24E-03*  0.25   1.26    QN   YES    0:00:01
       32  27   32    0  -108.68696639   -0.35E-05* -0.15E-01    3  10 1  0.21E-03*  0.26   1.90    QN   YES    0:00:02
       33  11   31    0  -108.68696947   -0.31E-05* -0.52E-02    4  13 7 -0.17E-03*  0.26   1.47    QN   YES    0:00:01
       34   8   31    0  -108.68697096   -0.15E-05*  0.94E-02    4  13 7 -0.12E-03*  0.26   2.28    QN   YES    0:00:01
       35  11   32    0  -108.68697353   -0.26E-05* -0.19E-01    3  10 1 -0.17E-03*  0.26   2.30    QN   YES    0:00:02
       36  11   33    0  -108.68697824   -0.47E-05* -0.41E-01    3  10 1 -0.37E-03*  0.26   2.50    QN   YES    0:00:02
       37  10   35    0  -108.68698762   -0.94E-05* -0.73E-01    3   7 1  0.61E-03*  0.26   2.38    QN   YES    0:00:02
       38  10   33    0  -108.68700345   -0.16E-04*  0.92E-01    3   7 1  0.83E-03*  0.26   1.89    QN   YES    0:00:02
       39  11   33    0  -108.68702268   -0.19E-04*  0.81E-01    1  13 3 -0.93E-03*  0.26   1.62    QN   YES    0:00:02
       40  10   36    0  -108.68704480   -0.22E-04*  0.78E-01    1  13 3 -0.79E-03*  0.26   2.01    QN   YES    0:00:02
       41  11   34    0  -108.68707721   -0.32E-04* -0.59E-01    2   8 7 -0.37E-03*  0.25   2.09    QN   YES    0:00:02
       42   9   34    0  -108.68711069   -0.33E-04*  0.52E-01    3  10 1  0.50E-03*  0.25   1.98    QN   YES    0:00:01
       43   6   34    0  -108.68713881   -0.28E-04* -0.57E-01    3   7 1 -0.81E-03*  0.25   2.06    QN   YES    0:00:01
       44   8   33    0  -108.68716364   -0.25E-04* -0.44E-01    3   7 1 -0.83E-03*  0.25   1.94    LS   YES    0:00:01
       45   9   33    0  -108.68717112   -0.75E-05*  0.19E-01    3   7 1 -0.85E-03*  0.25   1.21    QN   YES    0:00:01
       46  26   32    0  -108.68718217   -0.11E-04*  0.25E-01    3   7 1 -0.47E-03*  0.25   2.42    LS   YES    0:00:03
       47  21   32    0  -108.68718903   -0.69E-05* -0.67E-02    3   9 7 -0.15E-03*  0.25   1.33    QN   YES    0:00:02
       48   6   32    0  -108.68719315   -0.41E-05* -0.13E-01    1  13 3 -0.20E-03*  0.25   2.31    QN   YES    0:00:01
       49   6   32    0  -108.68719882   -0.57E-05*  0.12E-01    3   7 1  0.32E-03*  0.25   1.74    QN   YES    0:00:01
       50  11   32    0  -108.68720324   -0.44E-05*  0.19E-01    3   7 1  0.23E-03*  0.25   1.87    QN   YES    0:00:01
       51  12   33    0  -108.68720742   -0.42E-05*  0.21E-01    2  13 7 -0.24E-03*  0.25   1.77    QN   YES    0:00:02
       52  13   33    0  -108.68721169   -0.43E-05*  0.25E-01    4   9 7 -0.21E-03*  0.25   1.90    QN   YES    0:00:02
       53  14   33    0  -108.68721723   -0.55E-05*  0.32E-01    3   7 1 -0.33E-03*  0.25   2.04    QN   YES    0:00:01
       54  15   33    0  -108.68722480   -0.76E-05*  0.34E-01    3   7 1 -0.38E-03*  0.25   2.04    QN   YES    0:00:02
       55  13   32    0  -108.68723324   -0.84E-05* -0.28E-01    2  13 7  0.37E-03*  0.25   1.88    QN   YES    0:00:01
       56  10   29    0  -108.68724061   -0.74E-05* -0.18E-01    2  13 7  0.43E-03*  0.25   1.77    QN   YES    0:00:01
       57  11   32    0  -108.68724605   -0.54E-05* -0.11E-01    2  13 7  0.30E-03*  0.25   1.71    QN   YES    0:00:01
       58  34   32    0  -108.68724977   -0.37E-05*  0.98E-02    3   7 1  0.19E-03*  0.24   1.60    QN   YES    0:00:03
       59  15   32    0  -108.68725236   -0.26E-05* -0.93E-02    1  13 2  0.13E-03*  0.24   1.76    QN   YES    0:00:02
       60  28   30    0  -108.68725432   -0.20E-05*  0.93E-02    2  13 7 -0.13E-03*  0.24   1.75    QN   YES    0:00:03
       61  12   29    0  -108.68725577   -0.14E-05*  0.80E-02    2  13 7 -0.13E-03*  0.24   1.73    QN   YES    0:00:01
       62  10   29    0  -108.68725682   -0.11E-05*  0.69E-02    3   7 1 -0.99E-04   0.24   1.79    QN   YES    0:00:01
       63   5   29    0  -108.68725772   -0.90E-06*  0.60E-02    3  13 7  0.65E-04   0.24   1.84    QN   YES    0:00:01
       64  10   28    0  -108.68725857   -0.85E-06* -0.66E-02    2  12 7  0.82E-04   0.24   1.94    QN   YES    0:00:01
       65  29   29    0  -108.68725953   -0.96E-06*  0.91E-02    2  13 7  0.98E-04   0.24   1.91    QN   YES    0:00:03
       66   9   29    0  -108.68726073   -0.12E-05*  0.12E-01    3   7 1  0.12E-03*  0.24   1.99    QN   YES    0:00:01
       67  10   30    0  -108.68726217   -0.14E-05*  0.14E-01    1  13 2  0.11E-03*  0.24   1.96    QN   YES    0:00:01
       68  10   29    0  -108.68726370   -0.15E-05*  0.12E-01    2   7 7  0.93E-04   0.24   1.79    QN   YES    0:00:01
       69   5   28    0  -108.68726492   -0.12E-05* -0.74E-02    2  13 7 -0.94E-04   0.24   1.69    QN   YES    0:00:01
       70  10   27    0  -108.68726570   -0.77E-06* -0.35E-02    2  13 7 -0.89E-04   0.24   1.61    QN   YES    0:00:01
       71  10   27    0  -108.68726611   -0.41E-06*  0.25E-02    2  13 7 -0.48E-04   0.24   1.57    QN   YES    0:00:01
       72  10   27    0  -108.68726631   -0.20E-06*  0.16E-02    2   8 7  0.31E-04   0.24   1.53    QN   YES    0:00:01
       73   9   25    0  -108.68726640   -0.89E-07* -0.99E-03    2   8 7  0.18E-04   0.24   1.52    QN   YES    0:00:01
       74   4   25    0  -108.68726644   -0.43E-07* -0.95E-03    3   7 1  0.16E-04   0.24   1.69    QN   YES    0:00:00
       75   4   25    0  -108.68726648   -0.39E-07* -0.15E-02    2   8 7 -0.12E-04   0.24   1.99    QN   YES    0:00:01
       76   3   25    0  -108.68726654   -0.62E-07* -0.23E-02    2   8 7 -0.27E-04   0.24   2.09    QN   YES    0:00:00
       77   5   27    0  -108.68726664   -0.97E-07* -0.37E-02    2   8 7 -0.36E-04   0.24   2.17    QN   YES    0:00:01
       78   9   26    0  -108.68726678   -0.14E-06* -0.36E-02    3   7 1 -0.43E-04   0.24   1.81    QN   YES    0:00:01
       79   4   24    0  -108.68726690   -0.12E-06* -0.21E-02    3   7 1 -0.35E-04   0.24   1.65    QN   YES    0:00:00
       80   4   22    0  -108.68726697   -0.68E-07* -0.64E-03    4  13 7 -0.17E-04   0.24   1.47    QN   YES    0:00:00
       81   4   21    0  -108.68726700   -0.25E-07*  0.52E-03    2   8 7  0.82E-05   0.24   1.47    QN   YES    0:00:00
       82   3   21    0  -108.68726701   -0.11E-07* -0.44E-03    3   7 1  0.91E-05   0.24   1.57    QN   YES    0:00:00
       83   3   20    0  -108.68726702   -0.73E-08  -0.45E-03    3   7 1  0.66E-05   0.24   1.65    QN   YES    0:00:00
      Convergence after 83 iterations
       84   4   20    0  -108.68726702   -0.66E-08  -0.45E-03    3  13 7 -0.53E-05   0.24   1.65    QN   YES    0:00:02

      ************************************************************************************************************************
                                                      Wave function printout:
                       occupation of active orbitals, and spin coupling of open shells (u,d: Spin up or down)
      ************************************************************************************************************************

      Note: transformation to natural orbitals
      has been made, which may change the order of the CSFs.

      printout of CI-coefficients larger than  0.05 for root  1
      energy=    -109.072530
      conf/sym  2 3 666666 77777     Coeff  Weight
             1  2 2 u00000 00000   0.96735 0.93576
            18  0 2 u02000 00000   0.13364 0.01786
           265  u d u0d000 000u0   0.05727 0.00328
           460  u d u0u000 000d0   0.09920 0.00984
           480  u u u0d000 000d0   0.07750 0.00601
           623  2 0 u00000 00020   0.13226 0.01749

      printout of CI-coefficients larger than  0.05 for root  2
      energy=    -109.023073
      conf/sym  2 3 666666 77777     Coeff  Weight
             2  2 2 0u0000 00000   0.95339 0.90896
             7  2 2 00u000 00000   0.08156 0.00665
            20  0 2 0u2000 00000   0.13218 0.01747
           161  2 2 00000u 00000  -0.14081 0.01983
           275  u d 0ud000 000u0   0.05619 0.00316
           470  u d 0uu000 000d0   0.09811 0.00962
           485  u u 0ud000 000d0   0.07634 0.00583
           675  2 0 0u0000 00020   0.13028 0.01697

      printout of CI-coefficients larger than  0.05 for root  3
      energy=    -108.945117
      conf/sym  2 3 666666 77777     Coeff  Weight
             2  2 2 0u0000 00000   0.05031 0.00253
             7  2 2 00u000 00000   0.41788 0.17462
            23  2 2 000u00 00000   0.67288 0.45277
            38  0 2 002u00 00000  -0.09292 0.00863
            65  2 2 0000u0 00000  -0.29554 0.08734
           161  2 2 00000u 00000   0.47086 0.22171
           176  0 2 00200u 00000  -0.07215 0.00521
           515  u d 00uu00 000d0  -0.06896 0.00476
           520  u u 00du00 000d0   0.05700 0.00325
           779  2 0 00u000 00020   0.06004 0.00361
           987  2 0 000u00 00020   0.09187 0.00844
          1954  u d 00u00u 000d0  -0.05344 0.00286
          2022  2 0 00000u 00020   0.06408 0.00411

      printout of CI-coefficients larger than  0.05 for root  4
      energy=    -108.874807
      conf/sym  2 3 666666 77777     Coeff  Weight
             7  2 2 00u000 00000  -0.75761 0.57398
            23  2 2 000u00 00000   0.39536 0.15631
            38  0 2 002u00 00000  -0.05453 0.00297
            65  2 2 0000u0 00000  -0.42873 0.18381
            80  0 2 0020u0 00000   0.05926 0.00351
           161  2 2 00000u 00000  -0.18067 0.03264
           285  u d 002000 000u0  -0.06889 0.00475
           490  u u 002000 000d0  -0.07461 0.00557
           779  2 0 00u000 00020  -0.11039 0.01219
           987  2 0 000u00 00020   0.05418 0.00294
          1351  2 0 0000u0 00020  -0.05852 0.00342

      printout of CI-coefficients larger than  0.05 for root  5
      energy=    -108.746391
      conf/sym  2 3 666666 77777     Coeff  Weight
             2  2 2 0u0000 00000   0.10413 0.01084
             7  2 2 00u000 00000  -0.40292 0.16234
            23  2 2 000u00 00000   0.21674 0.04698
            65  2 2 0000u0 00000   0.70596 0.49837
            80  0 2 0020u0 00000  -0.09726 0.00946
           161  2 2 00000u 00000   0.47155 0.22236
           176  0 2 00200u 00000  -0.05912 0.00349
           565  u d 00u0u0 000d0  -0.07222 0.00522
           570  u u 00d0u0 000d0   0.06001 0.00360
           779  2 0 00u000 00020  -0.06049 0.00366
          1351  2 0 0000u0 00020   0.09636 0.00929
          2022  2 0 00000u 00020   0.06476 0.00419

      printout of CI-coefficients larger than  0.05 for root  6
      energy=    -108.524090
      conf/sym  2 3 666666 77777     Coeff  Weight
             2  2 2 0u0000 00000  -0.10575 0.01118
             7  2 2 00u000 00000   0.20251 0.04101
            23  2 2 000u00 00000   0.52859 0.27941
            38  0 2 002u00 00000  -0.07296 0.00532
            65  2 2 0000u0 00000   0.40779 0.16629
            80  0 2 0020u0 00000  -0.05646 0.00319
           161  2 2 00000u 00000  -0.66264 0.43910
           176  0 2 00200u 00000   0.09021 0.00814
           515  u d 00uu00 000d0  -0.05408 0.00292
           987  2 0 000u00 00020   0.07202 0.00519
          1351  2 0 0000u0 00020   0.05577 0.00311
          1954  u d 00u00u 000d0   0.06732 0.00453
          1964  u u 00d00u 000d0  -0.05509 0.00304
          2022  2 0 00000u 00020  -0.09133 0.00834

      printout of CI-coefficients larger than  0.05 for root  7
      energy=    -108.435838
      conf/sym  2 3 666666 77777     Coeff  Weight
           487  u u 002000 d0000   0.50050 0.25050
           773  2 0 00u000 d00u0  -0.42022 0.17658
           776  2 0 00u000 u00d0  -0.24261 0.05886
           799  0 2 00u000 d00u0   0.42911 0.18413
           802  0 2 00u000 u00d0   0.24775 0.06138
          2977  u u 000000 d0020   0.51601 0.26627

      printout of CI-coefficients larger than  0.05 for root  8
      energy=    -108.434880
      conf/sym  2 3 666666 77777     Coeff  Weight
           265  u d u0d000 000u0  -0.60143 0.36172
           270  u u d0d000 000u0   0.35892 0.12882
           460  u d u0u000 000d0   0.34724 0.12057
           465  u u d0u000 000d0   0.62187 0.38673

      printout of CI-coefficients larger than  0.05 for root  9
      energy=    -108.430054
      conf/sym  2 3 666666 77777     Coeff  Weight
             1  2 2 u00000 00000  -0.08663 0.00751
            17  2 0 u02000 00000  -0.14190 0.02014
            18  0 2 u02000 00000   0.35904 0.12891
           265  u d u0d000 000u0   0.24534 0.06019
           270  u u d0d000 000u0  -0.33428 0.11174
           460  u d u0u000 000d0   0.42494 0.18058
           465  u u d0u000 000d0   0.19300 0.03725
           480  u u u0d000 000d0  -0.54587 0.29798
           623  2 0 u00000 00020   0.36173 0.13085
           649  0 2 u00000 00020  -0.14517 0.02107

      printout of CI-coefficients larger than  0.05 for root 10
      energy=    -108.385891
      conf/sym  2 3 666666 77777     Coeff  Weight
           275  u d 0ud000 000u0   0.11436 0.01308
           280  u u 0dd000 000u0  -0.07814 0.00611
           475  u u 0du000 000d0  -0.09623 0.00926
           488  u u 002000 0d000   0.49535 0.24537
           490  u u 002000 000d0  -0.05268 0.00277
           774  2 0 00u000 0d0u0  -0.41509 0.17230
           777  2 0 00u000 0u0d0  -0.23991 0.05756
           779  2 0 00u000 00020   0.05335 0.00285
           800  0 2 00u000 0d0u0   0.41640 0.17339
           803  0 2 00u000 0u0d0   0.24102 0.05809
          2978  u u 000000 0d020   0.50064 0.25064

      Natural orbitals and occupation numbers for root  1
      sym 2:   1.934063
      sym 3:   1.933530
      sym 6:   1.000000   0.000000   0.065847   0.000000   0.000000   0.000035
      sym 7:   0.000000   0.000000   0.000125   0.066215   0.000185

      Natural orbitals and occupation numbers for root  2
      sym 2:   1.934251
      sym 3:   1.933594
      sym 6:   0.000000   1.000101   0.065553   0.000000   0.000000   0.000034
      sym 7:   0.000000   0.000000   0.000125   0.066156   0.000185

      Natural orbitals and occupation numbers for root  3
      sym 2:   1.940210
      sym 3:   1.934308
      sym 6:   0.000000   0.000000   0.055668   1.003925   0.000000   0.000034
      sym 7:   0.000000   0.000000   0.000124   0.065513   0.000217

      Natural orbitals and occupation numbers for root  4
      sym 2:   1.960036
      sym 3:   1.936259
      sym 6:   0.000000   0.000000   1.013733   0.025700   0.000000   0.000058
      sym 7:   0.000000   0.000000   0.000118   0.063775   0.000319

      Natural orbitals and occupation numbers for root  5
      sym 2:   1.944297
      sym 3:   1.934487
      sym 6:   0.000000   0.000000   0.048581   0.000000   1.006845   0.000056
      sym 7:   0.000000   0.000000   0.000123   0.065332   0.000279

      Natural orbitals and occupation numbers for root  6
      sym 2:   1.936985
      sym 3:   1.933435
      sym 6:   0.000000   0.000000   0.060058   1.002790   0.000000   0.000033
      sym 7:   0.000000   0.000000   0.000124   0.066303   0.000271

      Natural orbitals and occupation numbers for root  7
      sym 2:   0.989749
      sym 3:   1.010026
      sym 6:   0.000000   0.000000   0.982814   0.000010   0.000000   0.000668
      sym 7:   1.000000   0.000002   0.000077   1.015065   0.001590

      Natural orbitals and occupation numbers for root  8
      sym 2:   0.999921
      sym 3:   0.999920
      sym 6:   1.000000   0.000000   0.999080   0.000015   0.000000   0.000981
      sym 7:   0.000000   0.000001   0.000060   0.999155   0.000867

      Natural orbitals and occupation numbers for root  9
      sym 2:   1.007024
      sym 3:   1.004271
      sym 6:   1.000000   0.000000   0.990328   0.000001   0.000000   0.000604
      sym 7:   0.000000   0.000000   0.000186   0.996374   0.001212

      Natural orbitals and occupation numbers for root 10
      sym 2:   0.998755
      sym 3:   1.001063
      sym 6:   0.000000   0.032071   0.996351   0.000023   0.000001   0.000722
      sym 7:   0.000000   0.913013   0.000086   1.056411   0.001503

      ************************************************************************************************************************
      *                                                                                                                      *
      *                                                    Final results                                                     *
      *                                                                                                                      *
      ************************************************************************************************************************


++    Wave function specifications:
      -----------------------------

      Number of closed shell electrons          10
      Number of electrons in active shells       5
      Max number of holes in RAS1 space          0
      Max nr of electrons in RAS3 space          0
      Number of inactive orbitals                5
      Number of active orbitals                 13
      Number of secondary orbitals             106
      Spin quantum number                      0.5
      State symmetry                             6
--

++    Orbital specifications:
      -----------------------

      Symmetry species                           1   2   3   4   5   6   7   8
                                                ag b3u b2u b1g b1u b2g b3g  au
      Frozen orbitals                            0   0   0   0   0   0   0   0
      Inactive orbitals                          3   0   0   0   2   0   0   0
      Active orbitals                            0   1   1   0   0   6   5   0
      RAS1 orbitals                              0   0   0   0   0   0   0   0
      RAS2 orbitals                              0   1   1   0   0   6   5   0
      RAS3 orbitals                              0   0   0   0   0   0   0   0
      Secondary orbitals                        27  13  13   9  20   9  10   5
      Deleted orbitals                           0   0   0   0   0   0   0   0
      Number of basis functions                 30  14  14   9  22  15  15   5
--

++    CI expansion specifications:
      ----------------------------

      Number of CSFs                          3701
      Number of determinants                  6156
      Number of root(s) required                10
      CI roots used                              1     2     3     4     5     6     7     8     9    10
      weights                                0.100 0.100 0.100 0.100 0.100 0.100 0.100 0.100 0.100 0.100
      highest root included in the CI           10
      Root passed to geometry opt.              10
--

++    Final optimization conditions:
      ------------------------------

      Average CI energy                            -108.68726702
      RASSCF energy for state 10                   -108.38589077
      Super-CI energy                                -0.00000000
      RASSCF energy change                            0.00000000
      Max change in MO coefficients               0.109E-01
      Max non-diagonal density matrix element    -0.447E-03
      Maximum BLB matrix element                 -0.528E-05
      (orbital pair   3,  13 in symmetry   7)
      Norm of electronic gradient            0.155E+00
--


      Final state energy(ies):
      ------------------------

::    RASSCF root number  1 Total energy:   -109.07252997
::    RASSCF root number  2 Total energy:   -109.02307300
::    RASSCF root number  3 Total energy:   -108.94511668
::    RASSCF root number  4 Total energy:   -108.87480708
::    RASSCF root number  5 Total energy:   -108.74639145
::    RASSCF root number  6 Total energy:   -108.52408956
::    RASSCF root number  7 Total energy:   -108.43583777
::    RASSCF root number  8 Total energy:   -108.43487963
::    RASSCF root number  9 Total energy:   -108.43005434
::    RASSCF root number 10 Total energy:   -108.38589077

++    Molecular orbitals:
      -------------------

      Pseudonatural active orbitals and approximate occupation numbers




      Molecular orbitals for symmetry species 1: ag 


      Orbital                 1         2         3         4         5         6         7         8         9
      Energy           -15.5408   -1.3671   -0.5136    0.0001    0.0001    0.0509    0.0960    0.1019    0.1051
      Occ. No.           2.0000    2.0000    2.0000    0.0000    0.0000    0.0000    0.0000    0.0000    0.0000

     1 N1     1s         0.9995    0.0246    0.0062    0.0000   -0.0000   -0.0009   -0.0016   -0.0120   -0.0027
     2 N1     1s         0.0022   -0.8910    0.3397    0.0000   -0.0000   -0.0145    0.0483   -0.0523   -0.0182
     3 N1     1s         0.0023    0.0078   -0.0020    0.0000   -0.0000    0.0009    0.0012   -0.0061   -0.0015
     4 N1     1s         0.0017    0.1787    0.2377    0.0000   -0.0000    0.0216    0.0154   -0.5498   -0.1308
     5 N1     1s         0.0029   -0.0168    0.1606    0.0000   -0.0000   -2.6245   -5.8193   -5.8934   -0.8095
     6 N1     2pz       -0.0090    0.4971    0.9619    0.0000   -0.0000   -0.0146    0.0608   -0.0039   -0.0082
     7 N1     2pz        0.0048   -0.0512   -0.0622   -0.0000    0.0000    0.0037    0.0068    0.0306    0.0065
     8 N1     2pz        0.0060   -0.1890   -0.1045    0.0000   -0.0000   -0.0195   -0.0721   -0.2875   -0.0602
     9 N1     2pz        0.0108   -0.0957    0.1931    0.0000   -0.0000   -2.7333   -6.4612   -9.0868   -1.4924
    10 N1     3d0        0.0009   -0.0308   -0.0284    0.0000   -0.0000   -0.0004   -0.0023   -0.0015   -0.0001
    11 N1     3d0       -0.0017   -0.0261   -0.0296   -0.0000    0.0000    0.0039    0.0099    0.0127    0.0020
    12 N1     3d0       -0.0005    0.0367    0.0044   -0.0000    0.0000   -0.0524   -0.0700    0.2161    0.0572
    13 N1     3d2+       0.0000    0.0001    0.0001   -0.0000   -0.0000    0.0000   -0.0002    0.0005   -0.0023
    14 N1     3d2+       0.0000    0.0003   -0.0001    0.0000    0.0000   -0.0003    0.0017   -0.0043    0.0189
    15 N1     3d2+      -0.0000    0.0001   -0.0005   -0.0000   -0.0000    0.0018   -0.0103    0.0260   -0.1155
    16 N1     4f0        0.0003    0.0121    0.0088    0.0000   -0.0000   -0.0012   -0.0019    0.0006    0.0003
    17 N1     4f0        0.0008   -0.0056   -0.0032    0.0000   -0.0000    0.0040    0.0034   -0.0230   -0.0057
    18 N1     4f2+       0.0000   -0.0001   -0.0001    0.0000   -0.0000   -0.0000    0.0000   -0.0001    0.0002
    19 N1     4f2+       0.0000   -0.0001   -0.0002    0.0000    0.0000   -0.0000    0.0000   -0.0001    0.0006
    20 X1     1s        -0.0039    0.0267   -0.1349   -0.0000    0.0000    5.0657   10.8901    7.1131    0.5924
    21 X1     1s        -0.0002    0.0035    0.0291    0.0000   -0.0000   -5.0871   -8.4609   -1.2628    0.5370
    22 X1     1s         0.0001   -0.0017   -0.0057   -0.0000    0.0000    3.4635    3.1105    0.0216   -0.2796
    23 X1     3d0       -0.0024   -0.0044   -0.0508   -0.0000    0.0000    0.3779    0.8223    0.6396    0.0692
    24 X1     3d0       -0.0026    0.0334   -0.0393   -0.0000    0.0000    0.9580    2.3928    4.1085    0.7252
    25 X1     3d0        0.0003   -0.0053    0.0019    0.0000   -0.0000   -0.2224   -0.6040   -2.0680   -0.4202
    26 X1     3d0        0.0000   -0.0000    0.0000    0.3493    0.9370   -0.0000   -0.0000   -0.0000   -0.0000
    27 X1     3d2+       0.0000   -0.0000    0.0001    0.0000    0.0000   -0.0076    0.0455   -0.1134    0.5044
    28 X1     3d2+      -0.0000   -0.0000   -0.0002   -0.0000   -0.0000    0.0160   -0.1021    0.2542   -1.1333
    29 X1     3d2+       0.0000    0.0000    0.0000   -0.0000    0.0000   -0.0234    0.1665   -0.3695    1.6126
    30 X1     3d2+       0.0000   -0.0000    0.0000    0.9370   -0.3493    0.0000    0.0000    0.0000    0.0000



      Molecular orbitals for symmetry species 2: b3u


      Orbital                 1         2         3
      Energy             0.0000    0.0472    0.0905
      Occ. No.           1.5645    0.0000    0.0000

     1 N1     2px        0.9153   -0.0012   -0.0375
     2 N1     2px       -0.0133   -0.0088    0.0168
     3 N1     2px       -0.0712    0.0328   -0.0668
     4 N1     2px       -0.0073   -0.2355    0.4695
     5 N1     3d1+      -0.0264    0.0002    0.0012
     6 N1     3d1+      -0.0430    0.0000    0.0035
     7 N1     3d1+      -0.0022    0.0048   -0.0104
     8 N1     4f1+       0.0103    0.0004   -0.0013
     9 N1     4f1+      -0.0003   -0.0012    0.0026
    10 N1     4f3+      -0.0007    0.0000    0.0000
    11 N1     4f3+      -0.0010   -0.0000   -0.0000
    12 X1     2px        0.0269    1.0689   -2.2464
    13 X1     2px       -0.0177   -2.1800    3.8875
    14 X1     2px        0.0058    2.2041   -1.7242



      Molecular orbitals for symmetry species 3: b2u


      Orbital                 1         2         3
      Energy             0.0000    0.0465    0.0888
      Occ. No.           1.5621    0.0000    0.0000

     1 N1     2py        0.9164   -0.0016   -0.0378
     2 N1     2py       -0.0143   -0.0087    0.0165
     3 N1     2py       -0.0730    0.0323   -0.0663
     4 N1     2py       -0.0063   -0.2322    0.4621
     5 N1     3d1-      -0.0268    0.0002    0.0012
     6 N1     3d1-      -0.0447    0.0001    0.0037
     7 N1     3d1-      -0.0035    0.0046   -0.0109
     8 N1     4f3-       0.0001    0.0000    0.0000
     9 N1     4f3-      -0.0002   -0.0000   -0.0000
    10 N1     4f1-       0.0102    0.0004   -0.0013
    11 N1     4f1-      -0.0004   -0.0012    0.0027
    12 X1     2py        0.0256    1.0511   -2.2211
    13 X1     2py       -0.0170   -2.1450    3.8795
    14 X1     2py        0.0056    2.1881   -1.7363



      Molecular orbitals for symmetry species 4: b1g


      Orbital                 1         2
      Energy             0.0001    0.1048
      Occ. No.           0.0000    0.0000

     1 N1     3d2-      -0.0000   -0.0024
     2 N1     3d2-       0.0000    0.0194
     3 N1     3d2-      -0.0000   -0.1188
     4 N1     4f2-       0.0000    0.0002
     5 N1     4f2-       0.0000    0.0006
     6 X1     3d2-       0.0000    0.5188
     7 X1     3d2-       0.0000   -1.1656
     8 X1     3d2-      -0.0000    1.6628
     9 X1     3d2-       1.0000   -0.0000



      Molecular orbitals for symmetry species 5: b1u


      Orbital                 1         2         3         4
      Energy           -15.5377   -0.6664    0.0473    0.0910
      Occ. No.           2.0000    2.0000    0.0000    0.0000

     1 N1     1s         0.9988    0.0055   -0.0011   -0.0014
     2 N1     1s        -0.0024    0.9257   -0.0082    0.0271
     3 N1     1s         0.0016   -0.0041    0.0008    0.0021
     4 N1     1s         0.0272    0.3573    0.1550    0.1878
     5 N1     1s         0.0089    0.1279    2.3735    4.2391
     6 N1     2pz       -0.0059    0.4315   -0.0008    0.0137
     7 N1     2pz        0.0024   -0.0349   -0.0035   -0.0021
     8 N1     2pz       -0.0099   -0.1673   -0.0741   -0.0670
     9 N1     2pz       -0.0020   -0.0174   -1.0845   -2.0222
    10 N1     3d0        0.0009   -0.0065    0.0003   -0.0001
    11 N1     3d0        0.0009   -0.0077   -0.0011   -0.0082
    12 N1     3d0        0.0019    0.0176    0.0416    0.0654
    13 N1     3d2+       0.0000    0.0001   -0.0000    0.0000
    14 N1     3d2+       0.0000    0.0001   -0.0000   -0.0000
    15 N1     3d2+      -0.0000   -0.0001   -0.0002    0.0007
    16 N1     4f0       -0.0008   -0.0006    0.0006    0.0016
    17 N1     4f0        0.0000    0.0010   -0.0049   -0.0083
    18 N1     4f2+       0.0000   -0.0001   -0.0000    0.0000
    19 N1     4f2+      -0.0000   -0.0002    0.0001   -0.0001
    20 X1     2pz        0.0004    0.0058    1.6007    3.2807
    21 X1     2pz       -0.0001   -0.0032   -2.4776   -4.3844
    22 X1     2pz        0.0000    0.0011    2.2976    1.8337



      Molecular orbitals for symmetry species 6: b2g


      Orbital                 1         2         3         4         5         6
      Energy             0.0000    0.0000    0.0000    0.0000    0.0000    0.0000
      Occ. No.           0.3000    0.1033    0.5309    0.1000    0.1000    0.1011

     1 N1     2px       -0.0000   -0.1123    1.1010    0.0970    0.0407   -0.4156
     2 N1     2px        0.0000    0.0171    0.0189   -0.0558   -0.0013    0.0376
     3 N1     2px        0.0000    0.5477    0.2726   -0.6586    2.0569    0.4012
     4 N1     2px        0.0000    9.6421    0.7141   13.6768   85.8427  -16.8814
     5 N1     3d1+      -0.0000    0.0011    0.0083    0.0026    0.0148   -0.0046
     6 N1     3d1+      -0.0000   -0.0408    0.0085   -0.0259   -0.2752    0.0387
     7 N1     3d1+      -0.0000   -0.3784   -0.0333    1.4418    0.4493   -1.3225
     8 N1     4f1+       0.0000    0.0001   -0.0078    0.0135    0.0212   -0.0100
     9 N1     4f1+       0.0000    0.0379   -0.0052   -0.0695    0.0834    0.0583
    10 N1     4f3+       0.0000   -0.0000   -0.0014   -0.0000   -0.0000    0.0000
    11 N1     4f3+       0.0000   -0.0001   -0.0013    0.0000    0.0000   -0.0002
    12 X1     3d1+      -0.0000   -0.1855   -0.0754   -4.7466   -9.9183    4.5219
    13 X1     3d1+      -0.0000   -3.7053   -0.1380    0.4873  -21.5202    3.3430
    14 X1     3d1+       0.0000    1.9834    0.0170   -1.2023    2.9067   -0.7224
    15 X1     3d1+       1.0000   -0.0000    0.0000    0.0000    0.0000    0.0000



      Molecular orbitals for symmetry species 7: b3g


      Orbital                 1         2         3         4         5
      Energy             0.0000    0.0000    0.0000    0.0000    0.0000
      Occ. No.           0.1000    0.0962    0.0001    0.4396    0.0022

     1 N1     2py       -0.0000   -0.0766    0.1972   -1.1163   -1.4139
     2 N1     2py        0.0000    0.0124   -0.1409   -0.0198    0.1797
     3 N1     2py       -0.0000    0.5168   -0.3004   -0.2790    1.4877
     4 N1     2py       -0.0000   12.1862    0.2991   -0.8356   -0.3471
     5 N1     3d1-      -0.0000    0.0021    0.0069   -0.0065    0.0312
     6 N1     3d1-       0.0000   -0.0453    0.0017    0.0014    0.3339
     7 N1     3d1-       0.0000   -0.2038    0.0818    0.0555    0.1082
     8 N1     4f3-       0.0000   -0.0004    0.7902   -0.0015    0.0260
     9 N1     4f3-      -0.0000   -0.0005    0.5060   -0.0016    0.0001
    10 N1     4f1-       0.0000    0.0017    0.0146    0.0080    0.0213
    11 N1     4f1-      -0.0000    0.0303    0.0104    0.0025   -0.1228
    12 X1     3d1-       0.0000   -0.8077    0.0196    0.0593    0.1458
    13 X1     3d1-       0.0000   -4.2870   -0.0738    0.2032    0.2970
    14 X1     3d1-      -0.0000    2.1124   -0.0023   -0.0547   -0.2224
    15 X1     3d1-       1.0000    0.0000    0.0000   -0.0000   -0.0000
--

      Von Neumann Entropy (Root  1) =  0.92122


      Mulliken population analysis for root number:  1
      -----------------------------------------------


++    Molecular charges:
      ------------------

      Mulliken charges per centre and basis function type
      ---------------------------------------------------

                N1      X1    
      1s       4.0893 -0.1111
      2px      0.9741  0.0074
      2pz      0.9778  0.0022
      2py      0.9713  0.0070
      3d2+     0.0000 -0.0000
      3d1+     0.0284  0.9828
      3d0      0.0039 -0.0379
      3d1-     0.0241 -0.0014
      3d2-     0.0000  0.0000
      4f3+     0.0000  0.0000
      4f2+     0.0000  0.0000
      4f1+     0.0024  0.0000
      4f0      0.0023  0.0000
      4f1-     0.0017  0.0000
      4f2-     0.0000  0.0000
      4f3-     0.0001  0.0000
      Total    7.0755  0.8491

      N-E     -0.0755 -0.8491

      Total electronic charge=   15.000000

      Total            charge=   -1.000000
--



      Expectation values of various properties for root number:  1
      -----------------------------------------------------------


++    Molecular properties:
      ---------------------

      Charge (e):
                      =   -1.0000
      Dipole Moment (Debye):
      Origin of the operator (Ang)=    0.0000    0.0000    0.0000
                   X=  0.0000E+00               Y=  0.0000E+00               Z=  0.0000E+00           Total=  0.0000E+00
      Center of Charge (Ang)
                     X=   -0.00000000               Y=   -0.00000000               Z=   -0.00000000
      Quadrupole Moment (Debye*Ang):
      Origin of the operator (Ang)=    0.0000    0.0000    0.0000
                  XX= -1.0088E+08              XY=  0.0000E+00              XZ=  0.0000E+00              YY= -3.3626E+07
                  YZ=  0.0000E+00              ZZ= -1.0088E+08
      In traceless form (Debye*Ang)
                  XX= -3.3626E+07              XY=  0.0000E+00              XZ=  0.0000E+00              YY=  6.7252E+07
                  YZ=  0.0000E+00              ZZ= -3.3626E+07
--


      Mulliken spin population analysis for root number:  1
      ---------------------------------------------------


++    Molecular charges:
      ------------------

      Mulliken spin population per centre and basis function type
      ---------------------------------------------------

                N1      X1    
      1s       0.0000  0.0000
      2px     -0.0000 -0.0000
      2pz      0.0000  0.0000
      2py      0.0000  0.0000
      3d2+     0.0000  0.0000
      3d1+     0.0000  1.0000
      3d0      0.0000  0.0000
      3d1-    -0.0000 -0.0000
      3d2-     0.0000  0.0000
      4f3+    -0.0000  0.0000
      4f2+     0.0000  0.0000
      4f1+     0.0000  0.0000
      4f0      0.0000  0.0000
      4f1-    -0.0000  0.0000
      4f2-     0.0000  0.0000
      4f3-    -0.0000  0.0000
      Total   -0.0000  1.0000

      Total electronic spin=    1.000000
--


      Von Neumann Entropy (Root  2) =  0.92040


      Mulliken population analysis for root number:  2
      -----------------------------------------------


++    Molecular charges:
      ------------------

      Mulliken charges per centre and basis function type
      ---------------------------------------------------

                N1      X1    
      1s       4.0893 -0.1111
      2px      1.7880  0.0074
      2pz      0.9778  0.0022
      2py      0.9713  0.0070
      3d2+     0.0000 -0.0000
      3d1+     0.0125 -0.6126
      3d0      0.0039 -0.0379
      3d1-     0.0241 -0.0014
      3d2-     0.0000  0.0000
      4f3+     0.0000  0.0000
      4f2+     0.0000  0.0000
      4f1+     0.0020  0.0000
      4f0      0.0023  0.0000
      4f1-     0.0017  0.0000
      4f2-     0.0000  0.0000
      4f3-     0.0001  0.0000
      Total    7.8731 -0.7462

      N-E     -0.8731  0.7462

[...]
BVATM    4  Mu4.0001  Se4.003 Se1.013               0.22429603     -0.00001152      0.00004284     -0.00000000
BVATM    4  Mu4.0001  Se4.003 Se1.014               0.25297296      0.00000523     -0.00001788     -0.00000000
BVATM    4  Mu4.0001  Se4.004 Se1.004               0.08086204      0.00000000     -0.00000000     -0.00000000
BVATM    4  Mu4.0002  Se4.004 Se1.004               0.18272168      0.00000000     -0.00000000     -0.00000000
BVATM    4  Mu4.0001  Se4.004 Se1.005               0.08086346     -0.00000000      0.00000000     -0.00000000
BVATM    4  Mu4.0002  Se4.004 Se1.005               0.18272310     -0.00000000      0.00000000     -0.00000000
BVATM    4  Mu4.0001  Se4.004 Se1.006               0.13169223     -0.00001760      0.00008477     -0.00000000
BVATM    4  Mu4.0002  Se4.004 Se1.006               0.23355187     -0.00013385      0.00048433     -0.00000006
BVATM    4  Mu4.0001  Se4.004 Se1.007               0.17673782      0.00004330     -0.00018559     -0.00000001
BVATM    4  Mu4.0002  Se4.004 Se1.007               0.27859746      0.00025605     -0.00081419     -0.00000021
BVATM    4  Mu4.0001  Se4.004 Se1.008               0.18270146     -0.00001937      0.00008159     -0.00000000
BVATM    4  Mu4.0002  Se4.004 Se1.008               0.28456111     -0.00000470      0.00001469     -0.00000000
BVATM    4  Mu4.0001  Se4.004 Se1.009               0.18587143      0.00007771     -0.00032425     -0.00000003
BVATM    4  Mu4.0002  Se4.004 Se1.009               0.28773108      0.00012789     -0.00039657     -0.00000005
BVATM    4  Mu4.0001  Se4.004 Se1.010               0.26310581     -0.00004649      0.00015440     -0.00000001
BVATM    4  Mu4.0001  Se4.004 Se1.011               0.28454794      0.00002694     -0.00008427     -0.00000000
BJAIP    1  Se5.011 In1.003 Se5.011 In1.003         3.42852975      0.08627792     -0.02514331     -0.00216931
--

   (Skipping property calculation,
    use PROP keyword to activate)
--

  Total CASPT2 energies:

  State-specific CASPT2 energies obtained using
  rotated states do not have a well-defined physical
  meaning, however they can be extracted from the
  diagonal of the effective Hamiltonian.

++ Multi-State CASPT2 section:
********************************************************************************
  MULTI-STATE CASPT2 SECTION
--------------------------------------------------------------------------------

  Output diagonal energies have been shifted. Add   -109.00000000000000     

  Effective Hamiltonian matrix (Symmetric):

                1               2               3               4               5
   1        -0.35736527
   2         0.00000042     -0.31268354
   3        -0.00000013     -0.00141215     -0.27401632
   4         0.00000014     -0.00738514     -0.00232171     -0.21153725
   5         0.00000006     -0.00136023     -0.00247008     -0.01026172     -0.06231697
   6         0.00000000     -0.00071691     -0.00618046      0.00767294      0.01745547
   7        -0.00000003      0.00000011     -0.00000006     -0.00000004      0.00000001
   8         0.00000240     -0.00000006     -0.00000006      0.00000001     -0.00000001
   9        -0.05551576      0.00000062      0.00000000      0.00000006      0.00000001
  10         0.00000014     -0.00316611     -0.00077073     -0.00036892     -0.00013924

                6               7               8               9              10
   6         0.15439089
   7        -0.00000000      0.27983322
   8         0.00000001     -0.00000002      0.28004880
   9         0.00000001      0.00000000     -0.00004870      0.27533027
  10         0.00004524     -0.00000029     -0.00000000     -0.00000002      0.33022719

       Total XMS-CASPT2 energies:
::    XMS-CASPT2 Root  1     Total energy:   -109.36219955
::    XMS-CASPT2 Root  2     Total energy:   -109.31331897
::    XMS-CASPT2 Root  3     Total energy:   -109.27414192
::    XMS-CASPT2 Root  4     Total energy:   -109.21182468
::    XMS-CASPT2 Root  5     Total energy:   -109.06290653
::    XMS-CASPT2 Root  6     Total energy:   -108.84398790
::    XMS-CASPT2 Root  7     Total energy:   -108.72016678
::    XMS-CASPT2 Root  8     Total energy:   -108.71996897
::    XMS-CASPT2 Root  9     Total energy:   -108.71981767
::    XMS-CASPT2 Root 10     Total energy:   -108.66975601

       Eigenvectors:
            0.99623001      0.00000972     -0.00000168      0.00000079      0.00000017
           -0.00000965      0.99636037     -0.04350426     -0.07304919     -0.00300725
            0.00000131      0.04090933      0.99837499     -0.03574913     -0.00854786
           -0.00000144      0.07409327      0.03221235      0.99392334     -0.07237142
           -0.00000030      0.00879759      0.01183053      0.06987191      0.99431533
            0.00000002      0.00052347      0.01326738     -0.02490142     -0.07757081
            0.00000005     -0.00000017      0.00000011      0.00000010     -0.00000004
            0.00000285      0.00000010      0.00000011     -0.00000003      0.00000004
            0.08675118     -0.00000014     -0.00000013      0.00000006      0.00000002
           -0.00000025      0.00499522      0.00106667      0.00021898      0.00025220

            0.00000004      0.00000001     -0.02973913     -0.08149448      0.00000026
           -0.00200221      0.00000016      0.00000024      0.00000095     -0.00491446
           -0.01487091     -0.00000011     -0.00000010      0.00000006     -0.00126316
            0.01873412     -0.00000010      0.00000004      0.00000007     -0.00059904
            0.07897780      0.00000003     -0.00000003      0.00000002     -0.00030224
            0.99658734     -0.00000003      0.00000014      0.00000006      0.00026556
            0.00000003      1.00000000     -0.00007162      0.00002684     -0.00000582
           -0.00000011      0.00007648      0.93941615     -0.34277877     -0.00000009
           -0.00000010     -0.00000067      0.34148626      0.93587465     -0.00000068
           -0.00025819      0.00000582      0.00000032      0.00000064      0.99998687

       In terms of the input states:
            0.99998175      0.00000046     -0.00000040      0.00000033      0.00000002
           -0.00000051      0.99374630     -0.11053499      0.01545183      0.00319003
            0.00000006      0.07362494      0.75452276      0.64940086      0.05613341
           -0.00000044     -0.07805105     -0.60688759      0.73964155     -0.26958524
           -0.00000014     -0.02829388     -0.20534249      0.16324535      0.95558811
            0.00000007      0.01245414      0.08943904     -0.06573507     -0.10494767
            0.00000000     -0.00000000      0.00000003      0.00000009      0.00000000
            0.00000284      0.00000010      0.00000011     -0.00000003      0.00000004
           -0.00604147     -0.00000010     -0.00000010      0.00000006      0.00000005
           -0.00000013     -0.00019760     -0.00003923     -0.00005794     -0.00010106

           -0.00000002     -0.00000000      0.00206822      0.00567643      0.00000013
           -0.00115318      0.00000000     -0.00000005      0.00000011      0.00019351
           -0.02005820     -0.00000008     -0.00000006      0.00000006      0.00009198
            0.07648316     -0.00000005      0.00000007     -0.00000013     -0.00004088
            0.13128682     -0.00000001     -0.00000002     -0.00000007      0.00006276
            0.98818540     -0.00000004      0.00000013      0.00000007     -0.00023144
            0.00000004      1.00000000     -0.00006622      0.00002430     -0.00000624
           -0.00000011      0.00007054      0.93941612     -0.34277888     -0.00000013
           -0.00000009     -0.00000013      0.34277264      0.93939897     -0.00000075
            0.00022566      0.00000624      0.00000038      0.00000066      0.99999995

--

  THE ORIGINAL CI ARRAYS ARE NOW MIXED AS LINEAR
  COMBINATIONS, GIVEN BY THE EIGENVECTORS.
  A NEW JOBIPH FILE NAMED 'JOBMIX' IS PREPARED.
********************************************************************************

++ Mixed CI coefficients:
  The CI coefficients for the MIXED state nr.   1
--------------------------------------------------------------------------------
 CI COEFFICIENTS LARGER THAN  0.50D-01
  Occupation of active orbitals, and spin coupling
  of open shells. (u,d: Spin up or down).
  SGUGA info is (Midvert:IsyUp:UpperWalk/LowerWalk)
        Conf  SGUGA info        Occupation           Coefficient         Weight
           1  ( 1:1:   1/   1)   2 2 u00000 00000       0.967853       0.936740
          18  ( 1:1:   1/  18)   0 2 u02000 00000       0.131469       0.017284
         265  ( 2:7:   4/   5)   u d u0d000 000u0       0.055786       0.003112
         460  ( 3:7:   4/   6)   u d u0u000 000d0       0.096629       0.009337
         480  ( 3:7:   4/  10)   u u u0d000 000d0       0.080792       0.006527
         623  ( 4:1:  17/   1)   2 0 u00000 00020       0.130068       0.016918

  The CI coefficients for the MIXED state nr.   2
--------------------------------------------------------------------------------
 CI COEFFICIENTS LARGER THAN  0.50D-01
  Occupation of active orbitals, and spin coupling
  of open shells. (u,d: Spin up or down).
  SGUGA info is (Midvert:IsyUp:UpperWalk/LowerWalk)
        Conf  SGUGA info        Occupation           Coefficient         Weight
           2  ( 1:1:   1/   2)   2 2 0u0000 00000       0.943140       0.889514
           7  ( 1:1:   1/   7)   2 2 00u000 00000       0.184868       0.034176
          20  ( 1:1:   1/  20)   0 2 0u2000 00000       0.131363       0.017256
         161  ( 2:6:   1/   1)   2 2 00000u 00000      -0.112754       0.012713
         275  ( 2:7:   4/   7)   u d 0ud000 000u0       0.055278       0.003056
         470  ( 3:7:   4/   8)   u d 0uu000 000d0       0.097490       0.009504
         485  ( 3:7:   4/  11)   u u 0ud000 000d0       0.075465       0.005695
         675  ( 4:1:  17/   3)   2 0 0u0000 00020       0.128835       0.016598

  The CI coefficients for the MIXED state nr.   3
--------------------------------------------------------------------------------
 CI COEFFICIENTS LARGER THAN  0.50D-01
  Occupation of active orbitals, and spin coupling
  of open shells. (u,d: Spin up or down).
  SGUGA info is (Midvert:IsyUp:UpperWalk/LowerWalk)
        Conf  SGUGA info        Occupation           Coefficient         Weight
           2  ( 1:1:   1/   2)   2 2 0u0000 00000      -0.127297       0.016204
           7  ( 1:1:   1/   7)   2 2 00u000 00000       0.866918       0.751546
          23  ( 1:1:   1/  23)   2 2 000u00 00000       0.272779       0.074408
          65  ( 1:1:   1/  65)   2 2 0000u0 00000      -0.071877       0.005166
         161  ( 2:6:   1/   1)   2 2 00000u 00000       0.324390       0.105229
         176  ( 2:6:   1/  16)   0 2 00200u 00000      -0.058829       0.003461
         285  ( 2:7:   4/   9)   u d 002000 000u0       0.078834       0.006215
         490  ( 3:7:   4/  12)   u u 002000 000d0       0.085770       0.007356
         779  ( 4:1:  17/   7)   2 0 00u000 00020       0.126307       0.015954

  The CI coefficients for the MIXED state nr.   4
--------------------------------------------------------------------------------
 CI COEFFICIENTS LARGER THAN  0.50D-01
  Occupation of active orbitals, and spin coupling
  of open shells. (u,d: Spin up or down).
  SGUGA info is (Midvert:IsyUp:UpperWalk/LowerWalk)
        Conf  SGUGA info        Occupation           Coefficient         Weight
           2  ( 1:1:   1/   2)   2 2 0u0000 00000       0.106730       0.011391
           7  ( 1:1:   1/   7)   2 2 00u000 00000      -0.366820       0.134557
          23  ( 1:1:   1/  23)   2 2 000u00 00000       0.729717       0.532487
          38  ( 1:1:   1/  38)   0 2 002u00 00000      -0.100672       0.010135
          65  ( 1:1:   1/  65)   2 2 0000u0 00000      -0.420509       0.176828
          80  ( 1:1:   1/  80)   0 2 0020u0 00000       0.058229       0.003391
         161  ( 2:6:   1/   1)   2 2 00000u 00000       0.290503       0.084392
         515  ( 3:7:   4/  17)   u d 00uu00 000d0      -0.074731       0.005585
         520  ( 3:7:   4/  18)   u u 00du00 000d0       0.062157       0.003863
         779  ( 4:1:  17/   7)   2 0 00u000 00020      -0.054463       0.002966
         987  ( 4:1:  17/  15)   2 0 000u00 00020       0.099777       0.009956
        1351  ( 4:1:  17/  29)   2 0 0000u0 00020      -0.057526       0.003309

  The CI coefficients for the MIXED state nr.   5
--------------------------------------------------------------------------------
 CI COEFFICIENTS LARGER THAN  0.50D-01
  Occupation of active orbitals, and spin coupling
  of open shells. (u,d: Spin up or down).
  SGUGA info is (Midvert:IsyUp:UpperWalk/LowerWalk)
        Conf  SGUGA info        Occupation           Coefficient         Weight
           2  ( 1:1:   1/   2)   2 2 0u0000 00000       0.103579       0.010729
           7  ( 1:1:   1/   7)   2 2 00u000 00000      -0.178319       0.031798
          23  ( 1:1:   1/  23)   2 2 000u00 00000       0.082763       0.006850
          65  ( 1:1:   1/  65)   2 2 0000u0 00000       0.730814       0.534090
          80  ( 1:1:   1/  80)   0 2 0020u0 00000      -0.100695       0.010139
         161  ( 2:6:   1/   1)   2 2 00000u 00000       0.594838       0.353832
         176  ( 2:6:   1/  16)   0 2 00200u 00000      -0.079993       0.006399
         565  ( 3:7:   4/  27)   u d 00u0u0 000d0      -0.074765       0.005590
         570  ( 3:7:   4/  28)   u u 00d0u0 000d0       0.062088       0.003855
        1351  ( 4:1:  17/  29)   2 0 0000u0 00020       0.099730       0.009946
        1954  ( 4:4:   8/   5)   u d 00u00u 000d0      -0.059647       0.003558
        2022  ( 5:6:  16/   1)   2 0 00000u 00020       0.081489       0.006641

  The CI coefficients for the MIXED state nr.   6
--------------------------------------------------------------------------------
 CI COEFFICIENTS LARGER THAN  0.50D-01
  Occupation of active orbitals, and spin coupling
  of open shells. (u,d: Spin up or down).
  SGUGA info is (Midvert:IsyUp:UpperWalk/LowerWalk)
        Conf  SGUGA info        Occupation           Coefficient         Weight
           2  ( 1:1:   1/   2)   2 2 0u0000 00000      -0.089285       0.007972
           7  ( 1:1:   1/   7)   2 2 00u000 00000       0.080802       0.006529
          23  ( 1:1:   1/  23)   2 2 000u00 00000       0.567565       0.322130
          38  ( 1:1:   1/  38)   0 2 002u00 00000      -0.078294       0.006130
          65  ( 1:1:   1/  65)   2 2 0000u0 00000       0.468788       0.219762
          80  ( 1:1:   1/  80)   0 2 0020u0 00000      -0.064846       0.004205
         161  ( 2:6:   1/   1)   2 2 00000u 00000      -0.616009       0.379467
         176  ( 2:6:   1/  16)   0 2 00200u 00000       0.085655       0.007337
         515  ( 3:7:   4/  17)   u d 00uu00 000d0      -0.058049       0.003370
         987  ( 4:1:  17/  15)   2 0 000u00 00020       0.077353       0.005983
        1351  ( 4:1:  17/  29)   2 0 0000u0 00020       0.064099       0.004109
        1954  ( 4:4:   8/   5)   u d 00u00u 000d0       0.063865       0.004079
        1964  ( 4:4:   8/   6)   u u 00d00u 000d0      -0.051575       0.002660
        2022  ( 5:6:  16/   1)   2 0 00000u 00020      -0.084848       0.007199

  The CI coefficients for the MIXED state nr.   7
--------------------------------------------------------------------------------
 CI COEFFICIENTS LARGER THAN  0.50D-01
  Occupation of active orbitals, and spin coupling
  of open shells. (u,d: Spin up or down).
  SGUGA info is (Midvert:IsyUp:UpperWalk/LowerWalk)
        Conf  SGUGA info        Occupation           Coefficient         Weight
         487  ( 3:7:   1/  12)   u u 002000 d0000       0.500499       0.250499
         773  ( 4:1:  11/   7)   2 0 00u000 d00u0      -0.420218       0.176584
         776  ( 4:1:  14/   7)   2 0 00u000 u00d0      -0.242613       0.058861
         799  ( 4:1:  11/   8)   0 2 00u000 d00u0       0.429108       0.184133
         802  ( 4:1:  14/   8)   0 2 00u000 u00d0       0.247745       0.061378
        2977  ( 7:7:  26/   1)   u u 000000 d0020       0.516011       0.266268

  The CI coefficients for the MIXED state nr.   8
--------------------------------------------------------------------------------
 CI COEFFICIENTS LARGER THAN  0.50D-01
  Occupation of active orbitals, and spin coupling
  of open shells. (u,d: Spin up or down).
  SGUGA info is (Midvert:IsyUp:UpperWalk/LowerWalk)
        Conf  SGUGA info        Occupation           Coefficient         Weight
          18  ( 1:1:   1/  18)   0 2 u02000 00000       0.123346       0.015214
         265  ( 2:7:   4/   5)   u d u0d000 000u0      -0.480781       0.231150
         270  ( 2:7:   4/   6)   u u d0d000 000u0       0.222689       0.049591
         460  ( 3:7:   4/   6)   u d u0u000 000d0       0.472063       0.222844
         465  ( 3:7:   4/   7)   u u d0u000 000d0       0.650296       0.422885
         480  ( 3:7:   4/  10)   u u u0d000 000d0      -0.186880       0.034924
         623  ( 4:1:  17/   1)   2 0 u00000 00020       0.124266       0.015442

  The CI coefficients for the MIXED state nr.   9
--------------------------------------------------------------------------------
 CI COEFFICIENTS LARGER THAN  0.50D-01
  Occupation of active orbitals, and spin coupling
  of open shells. (u,d: Spin up or down).
  SGUGA info is (Midvert:IsyUp:UpperWalk/LowerWalk)
        Conf  SGUGA info        Occupation           Coefficient         Weight
           1  ( 1:1:   1/   1)   2 2 u00000 00000      -0.075893       0.005760
          17  ( 1:1:   1/  17)   2 0 u02000 00000      -0.133197       0.017741
          18  ( 1:1:   1/  18)   0 2 u02000 00000       0.338041       0.114272
         265  ( 2:7:   4/   5)   u d u0d000 000u0       0.436956       0.190930
         270  ( 2:7:   4/   6)   u u d0d000 000u0      -0.436780       0.190777
         460  ( 3:7:   4/   6)   u d u0u000 000d0       0.280727       0.078808
         480  ( 3:7:   4/  10)   u u u0d000 000d0      -0.512379       0.262532
         623  ( 4:1:  17/   1)   2 0 u00000 00020       0.340562       0.115983
         649  ( 4:1:  17/   2)   0 2 u00000 00020      -0.136265       0.018568

  The CI coefficients for the MIXED state nr.  10
--------------------------------------------------------------------------------
 CI COEFFICIENTS LARGER THAN  0.50D-01
  Occupation of active orbitals, and spin coupling
  of open shells. (u,d: Spin up or down).
  SGUGA info is (Midvert:IsyUp:UpperWalk/LowerWalk)
        Conf  SGUGA info        Occupation           Coefficient         Weight
         275  ( 2:7:   4/   7)   u d 0ud000 000u0       0.114370       0.013080
         280  ( 2:7:   4/   8)   u u 0dd000 000u0      -0.078129       0.006104
         475  ( 3:7:   4/   9)   u u 0du000 000d0      -0.096234       0.009261
         488  ( 3:7:   2/  12)   u u 002000 0d000       0.495351       0.245372
         490  ( 3:7:   4/  12)   u u 002000 000d0      -0.052681       0.002775
         774  ( 4:1:  12/   7)   2 0 00u000 0d0u0      -0.415085       0.172295
         777  ( 4:1:  15/   7)   2 0 00u000 0u0d0      -0.239915       0.057559
         779  ( 4:1:  17/   7)   2 0 00u000 00020       0.053351       0.002846
         800  ( 4:1:  12/   8)   0 2 00u000 0d0u0       0.416403       0.173392
         803  ( 4:1:  15/   8)   0 2 00u000 0u0d0       0.241024       0.058093
        2978  ( 7:7:  27/   1)   u u 000000 0d020       0.500639       0.250639

--

--- Stop Module: caspt2 at Mon Jul  5 14:18:25 2021 /rc=_RC_ALL_IS_WELL_ ---
*** files: xmldump
    saved to directory /home/gayverjr/opencap_examples
--- Module caspt2 spent 2 minutes 22 seconds ---

.##################.
.# Happy landing! #.
.##################.

    Timing: Wall=304.86 User=2201.22 System=65.58
