******************************************************
*** WorkDir and CurrDir are the same, not cleaned! ***
******************************************************
   This run of MOLCAS is using the pymolcas driver

                             OPE
                             OPE          NMOL  CASOP  ENMOLC A   SO
                 OPE        NMOLC        AS  OP EN  MO LC     AS  OP
                OPENM       OL CA        SO  PE NM  OL CA     SOP EN
                OP EN      MO   LC       AS  OP ENMOL  CASO   PENMOL
                OP  EN     MO   LC       AS  OP EN     MO     LC ASO
               OP   E  NMOL  C  AS       OP  EN MO     LC     AS  OP
               OP  E   NMO   LC AS        OPEN  MO     LCASOP EN   M
               O  PEN   MO  LCA  SO
            OPE   NMO   L   CAS    OP
        OPENMOL  CASOP     ENMOL   CASOPE
     OPENMOLCA   SOPENMOLCASOPEN   MOLCASOPE
    OPENMOLCAS   OP           EN   MOL    CAS
    OPENMOLCAS       OP  ENM        O     LCA
    OPENMOLCAS    OPEN  MOLCASO     P  E  NMO
    OPENMOLCAS     OP               E  N  MOL
    OPENMOLCA   SO           PENM   O  L  CAS    OPEN    MO    LCAS
    OPENMOLCA   SOP           ENM   O  L  CAS   OP  EN  MOLC  AS   O
    OPENMOLCA   SOPE           NM      O  LCA   S      OP  EN MO
    OPENMOLC                AS         O  PEN   M      OL  CA  SOPE
    OPENMO        LCASOPE  NMOL        C  ASO   P      ENMOLC     AS
    OPE     NMO      LCA  SO     P     E   NM   OL  CA SO  PE N   MO
          OPENMOLCA            SOPE   NMO        LCAS  O    P  ENMO
     OPENMOLCASOPENMOLCASOPENMOLCASOPENMOLCA
        OPENMOLCASOPENMOLCASOPENMOLCASOPE
            OPENMOLCASOPENMOLCASOPENM
               OPENMOLCASOPENMOLCA        version: 19.11
                   OPENMOLCASO
                       OPE                tag: 1162-ga18ab34

 OpenMolcas is free software; you can redistribute it and/or modify it
 under the terms of the GNU Lesser General Public License version 2.1.
 OpenMolcas is distributed in the hope that it will be useful, but it
 is provided "as is" and without any express or implied warranties.
 For more details see the full text of the license in the file
 LICENSE or in <http://www.gnu.org/licenses/>.

                 Copyright (C) The OpenMolcas Authors
           For the author list and the recommended citation,
                   consult the file CONTRIBUTORS.md

           *************************************************
           * pymolcas version py2.08                       *
           *   build bed633bbe89b7744c23cdbfc3f64969c      *
           *   (after the EMIL interpreter by V. Veryazov) *
           *************************************************

configuration info
------------------
C Compiler ID: GNU
C flags: -std=gnu99 -fopenmp
Fortran Compiler ID: GNU
Fortran flags: -fno-aggressive-loop-optimizations -cpp -fdefault-integer-8 -fopenmp
Definitions: _MOLCAS_;_I8_;_LINUX_;_MKL_;_DMRG_
Parallel: OFF (GA=OFF)


   ----------------------------------------------------------------------------
  |
  |             Project: anion_xms
  |      Submitted from: /scratch/gayverjr/anion_xms.3015289400
  |        Scratch area: /scratch/gayverjr/anion_xms.3015289400
  |     Save outputs to: /home/gayverjr/OpenCAP/n2_molcas/full_N2_example/anion
  |              Molcas: /home/qcsoftware/OpenMolcas/qcmaquis_build/build
  |
  | Scratch area is NOT empty
  |
  |      MOLCAS_DRIVER = /home/qcsoftware/bin/pymolcas
  | MOLCAS_NEW_WORKDIR = YES
  |      MOLCAS_NPROCS = 16
  |      MOLCAS_SOURCE = /home/qcsoftware/OpenMolcas/Molcas_src
  |   MOLCAS_STRUCTURE = 0
  |
   ----------------------------------------------------------------------------

++ ---------   Input file   ---------

&GATEWAY
Expert
Basis set
 N.aug-cc-pvtz
 N1  0.0  0.0  1.039
 N2  0.0  0.0  -1.039
End of Basis
Basis set
X ..... / inline
   0.00   2
    3    3
               0.0288
               0.0144
               0.0072
      1.00000000             0.00000000             0.00000000
      0.00000000             1.00000000             0.00000000
      0.00000000             0.00000000             1.00000000
     3    3
               0.02455
               0.012275
               0.0061375
     1.00000000             0.00000000             0.00000000
     0.00000000             1.00000000             0.00000000
     0.00000000             0.00000000             1.00000000
     3    3
               0.0755
               0.03775
               0.018875
      1.000000E+00           0.000000E+00           0.000000E+00           0.00000000
      0.000000E+00           1.000000E+00           0.000000E+00           0.00000000
      0.000000E+00           0.000000E+00           1.000000E+00           0.00000000
X1  0.000  0.000  0.000
End of basis

&SEWARD

>>> COPY /home/gayverjr/OpenCAP/n2_molcas/full_N2_example/orbs/casscf/cas_orbs.RasOrb INPORB

&RASSCF
LUMORB
Charge = -1
SPIN = 2
Ras2=10
TDM
NActEl=5,0,0
CIROOT= 10 10 1
Alter = 6
1 10 18
1 11 19
1 12 28
1 13 29
1 14 37
1 15 38

&CASPT2
MAXIter = 50
XMULtistate = all

&RASSI
TRD1
Heff
EJOB

-- ----------------------------------

--- Start Module: gateway at Sun Jun 28 20:22:31 2020 ---

()()()()()()()()()()()()()()()()()()()()()()()()()()()()()()()()()()()()()()()()()()()()()()()()()()

                                              &GATEWAY

                                   only a single process is used
                       available to each process: 20 GB of memory, 16 threads
                                             pid: 13793
()()()()()()()()()()()()()()()()()()()()()()()()()()()()()()()()()()()()()()()()()()()()()()()()()()

 ###############################################################################
 ###############################################################################
 ###                                                                         ###
 ###                                                                         ###
 ###    WARNING:  EXPERT option is ON!                                       ###
 ###                                                                         ###
 ###                                                                         ###
 ###############################################################################
 ###############################################################################

++    Symmetry information:
      ---------------------

                    Character Table for C1 

                             E  
                    a        1  x, y, xy, Rz, z, xz, Ry, yz, Rx, I
--


++    Basis set information:
      ----------------------


      Basis set label: N.AUG-CC-PVTZ.........

      Electronic valence basis set:
      ------------------
      Associated Effective Charge   7.000000 au
      Associated Actual Charge      7.000000 au
      Nuclear Model: Point charge

      Shell  nPrim  nBasis  Cartesian Spherical Contaminant
         s      11       5        X                  
         p       6       4        X                  
         d       3       3                 X         
         f       2       2                 X         


      Basis set label: X...............................................................................

      Electronic valence basis set:
      ------------------
      Associated Effective Charge   0.000000 au
      Associated Actual Charge      0.000000 au
      Nuclear Model: Point charge

      Shell  nPrim  nBasis  Cartesian Spherical Contaminant
         s       3       3        X                  
         p       3       3        X                  
         d       3       3                 X         
--


++    Molecular structure info:
      -------------------------

                    ************************************************ 
                    **** Cartesian Coordinates / Bohr, Angstrom **** 
                    ************************************************ 

     Center  Label                x              y              z                     x              y              z
        1      N1               0.000000       0.000000       1.039000              0.000000       0.000000       0.549815
        2      N2               0.000000       0.000000      -1.039000              0.000000       0.000000      -0.549815
        3      X1               0.000000       0.000000       0.000000              0.000000       0.000000       0.000000

                    *************************************** 
                    *    InterNuclear Distances / Bohr    * 
                    *************************************** 

               1 N1            2 N2            3 X1    
    1 N1       0.000000
    2 N2       2.078000        0.000000
    3 X1       1.039000        1.039000        0.000000

                    ******************************************* 
                    *    InterNuclear Distances / Angstrom    * 
                    ******************************************* 

               1 N1            2 N2            3 X1    
    1 N1       0.000000
    2 N2       1.099630        0.000000
    3 X1       0.549815        0.549815        0.000000

                    ************************************** 
                    *    Valence Bond Angles / Degree    * 
                    ************************************** 
                          Atom centers                 Phi
                      2 N2       1 N1       3 X1         0.00
                      1 N1       2 N2       3 X1         0.00
                      1 N1       3 X1       2 N2       180.00
--


            Nuclear Potential Energy             23.58036574 au

--- Stop Module: gateway at Sun Jun 28 20:22:33 2020 /rc=_RC_ALL_IS_WELL_ ---
*** files: xmldump
    saved to directory /home/gayverjr/OpenCAP/n2_molcas/full_N2_example/anion
--- Module gateway spent 1 second ---

--- Start Module: seward at Sun Jun 28 20:22:33 2020 ---

()()()()()()()()()()()()()()()()()()()()()()()()()()()()()()()()()()()()()()()()()()()()()()()()()()

                                              &SEWARD

                                   only a single process is used
                       available to each process: 20 GB of memory, 16 threads
                                             pid: 13814
()()()()()()()()()()()()()()()()()()()()()()()()()()()()()()()()()()()()()()()()()()()()()()()()()()

               SEWARD will generate:
                  Multipole Moment integrals up to order  2
                  Kinetic Energy integrals
                  Nuclear Attraction integrals (point charge)
                  One-Electron Hamiltonian integrals
                  Velocity integrals
                  Orbital angular momentum around ( 0.0000  0.0000  0.0000 )
                  Velocity quadrupole around ( 0.0000  0.0000  0.0000 )
                  Two-Electron Repulsion integrals

                   Integrals are discarded if absolute value <: 0.10E-13
                   Integral cutoff threshold is set to       <: 0.10E-15

            Nuclear Potential Energy             23.58036574 au


      Basis set specifications :
      Symmetry species         a  
      Basis functions          119


  Input file to MOLDEN was generated!

--- Stop Module: seward at Sun Jun 28 20:22:38 2020 /rc=_RC_ALL_IS_WELL_ ---
*** files: anion_xms.GssOrb anion_xms.guessorb.h5 anion_xms.guessorb.molden xmldump
    saved to directory /home/gayverjr/OpenCAP/n2_molcas/full_N2_example/anion
--- Module seward spent 4 seconds ---

>>> COPY /home/gayverjr/OpenCAP/n2_molcas/full_N2_example/orbs/casscf/cas_orbs.RasOrb INPORB

--- Start Module: rasscf at Sun Jun 28 20:22:38 2020 ---

()()()()()()()()()()()()()()()()()()()()()()()()()()()()()()()()()()()()()()()()()()()()()()()()()()

                                              &RASSCF

                                   only a single process is used
                       available to each process: 20 GB of memory, 16 threads
                                             pid: 13895
()()()()()()()()()()()()()()()()()()()()()()()()()()()()()()()()()()()()()()()()()()()()()()()()()()


      Header of the ONEINT file:
      --------------------------
      
      Integrals generated by seward 4.2.0  , Sun Jun 28 20:22:33 2020


      OrdInt status: non-squared


      Cartesian coordinates in Angstrom:
      -----------------------------------------------------
      No.  Label        X            Y            Z        
      -----------------------------------------------------
       1   N1         0.00000000   0.00000000   0.54981512
       2   N2         0.00000000   0.00000000  -0.54981512
       3   X1         0.00000000   0.00000000   0.00000000
      -----------------------------------------------------
      Nuclear repulsion energy =   23.58036574

++    Wave function specifications:
      -----------------------------

      Number of closed shell electrons          10
      Number of electrons in active shells       5
      Max number of holes in RAS1 space          0
      Max nr of electrons in RAS3 space          0
      Number of inactive orbitals                5
      Number of active orbitals                 10
      Number of secondary orbitals             104
      Spin quantum number                      0.5
      State symmetry                             1
--

++    Orbital specifications:
      -----------------------

      Symmetry species                           1
                                                 a
      Frozen orbitals                            0
      Inactive orbitals                          5
      Active orbitals                           10
      RAS1 orbitals                              0
      RAS2 orbitals                             10
      RAS3 orbitals                              0
      Secondary orbitals                       104
      Deleted orbitals                           0
      Number of basis functions                119
--

++    CI expansion specifications:
      ----------------------------

      Number of CSFs                          3300
      Number of determinants                  5400
      Number of root(s) required                10
      Root chosen for geometry opt.             10
      CI roots used                              1     2     3     4     5     6     7     8     9    10
      weights                                0.100 0.100 0.100 0.100 0.100 0.100 0.100 0.100 0.100 0.100
      highest root included in the CI           10
      max. size of the explicit Hamiltonian    200
--

++    Optimization specifications:
      ----------------------------

      RASSCF algorithm: Conventional
      Maximum number of macro iterations       200
      Maximum number of SX iterations          100
      Threshold for RASSCF energy            0.100E-07
      Threshold for max MO rotation          0.100E+00
      Threshold for max BLB element          0.100E-03
      Level shift parameter                  0.500E+00
      Make Quasi-Newton update
--

      The MO-coefficients are taken from the file:
      INPORB                                                                                                                          
      Title: RASSCF average (pseudo-natural) orbitals                                      

      Total molecular charge   -1.00

      Molecular orbitals exchanged:
        In symmetry  1 :  10  18
        In symmetry  1 :  11  19
        In symmetry  1 :  12  28
        In symmetry  1 :  13  29
        In symmetry  1 :  14  37
        In symmetry  1 :  15  38


      ************************************************************************************************************************
      *                                                                                                                      *
      *                                            Wave function control section                                             *
      *                                                                                                                      *
      ************************************************************************************************************************


                                         RASSCF iterations: Energy and convergence statistics
                                         ----------------------------------------------------

      Iter CI   SX   CI       RASSCF       Energy    max ROT     max BLB   max BLB  Level Ln srch  Step   QN   Walltime
          iter iter root      energy       change     param      element    value   shift minimum  type update hh:mm:ss
 Nr of preliminary CI iterations:   8
        1   1    6    0  -108.85065758    0.00E+00  -0.13E-01    6  57 1 -0.49E-01*  0.79   0.00    SX    NO    0:00:06
        2   1    6    0  -108.85943642   -0.88E-02*  0.93E-02    4  58 1 -0.13E-01*  0.79   0.00    SX    NO    0:00:02
        3   3    6    0  -108.86038830   -0.95E-03*  0.56E-02    4  47 1 -0.63E-02*  0.79   0.00    SX    NO    0:00:02
        4   3    5    0  -108.86063910   -0.25E-03* -0.36E-02    4  47 1 -0.33E-02*  0.79   0.00    SX    NO    0:00:03
        5   3    5    0  -108.86071564   -0.77E-04* -0.46E-02    4  47 1 -0.18E-02*  0.79   2.28    LS   YES    0:00:03
        6   3    5    0  -108.86075290   -0.37E-04* -0.25E-02    6  57 1  0.83E-03*  0.79   1.07    QN   YES    0:00:02
        7   2    5    0  -108.86075701   -0.41E-05* -0.32E-02    4  58 1  0.40E-03*  0.79   2.34    LS   YES    0:00:02
        8   3    5    0  -108.86075910   -0.21E-05* -0.13E-02    6  57 1 -0.29E-03*  0.79   1.05    QN   YES    0:00:02
        9   3    4    0  -108.86076013   -0.10E-05* -0.10E-02    6  57 1 -0.24E-03*  0.79   1.77    LS   YES    0:00:03
       10   3    4    0  -108.86076038   -0.24E-06* -0.68E-03    7  56 1  0.20E-03*  0.79   1.01    QN   YES    0:00:03
       11   2    4    0  -108.86076058   -0.21E-06* -0.61E-03    4  58 1 -0.98E-04   0.79   1.89    LS   YES    0:00:02
       12   2    4    0  -108.86076064   -0.60E-07* -0.20E-03    5  59 1 -0.77E-04   0.79   1.00    QN   YES    0:00:03
       13   1    4    0  -108.86076067   -0.28E-07* -0.23E-03    5  16 1 -0.37E-04   0.79   2.14    LS   YES    0:00:02
       14   1    4    0  -108.86076068   -0.11E-07*  0.31E-04    4  71 1 -0.31E-04   0.79   0.99    QN   YES    0:00:03
       15   1    3    0  -108.86076069   -0.29E-08  -0.27E-04    4  71 1 -0.11E-04   0.79   1.66    QN   YES    0:00:02
      Convergence after 15 iterations
       16   1    3    0  -108.86076069   -0.78E-09  -0.27E-04    5  87 1  0.42E-05   0.79   1.66    QN   YES    0:00:03

      ************************************************************************************************************************
                                                      Wave function printout:
                       occupation of active orbitals, and spin coupling of open shells (u,d: Spin up or down)
      ************************************************************************************************************************

      Note: transformation to natural orbitals
      has been made, which may change the order of the CSFs.

      printout of CI-coefficients larger than  0.05 for root  1
      energy=    -109.018222
      conf/sym  1111111111     Coeff  Weight
             1  22u0000000   0.19233 0.03699
             4  220u000000  -0.07746 0.00600
            21  2200u00000   0.94471 0.89249
            24  2020u00000  -0.07795 0.00608
            25  ud20u00000  -0.08188 0.00670
            26  0220u00000  -0.07511 0.00564
            29  20udu00000  -0.07958 0.00633
            31  02udu00000   0.08206 0.00673
            32  uuddu00000   0.09580 0.00918
            35  2002u00000  -0.07194 0.00517
            36  ud02u00000   0.07976 0.00636
            37  0202u00000  -0.07739 0.00599

      printout of CI-coefficients larger than  0.05 for root  2
      energy=    -109.018222
      conf/sym  1111111111     Coeff  Weight
             1  22u0000000   0.07746 0.00600
             4  220u000000   0.19233 0.03699
            76  22000u0000   0.94471 0.89249
            91  20200u0000  -0.07739 0.00599
            96  ud200u0000  -0.07976 0.00636
           101  02200u0000  -0.07194 0.00517
           116  20ud0u0000  -0.08206 0.00673
           126  02ud0u0000   0.07958 0.00633
           131  uudd0u0000   0.09580 0.00918
           146  20020u0000  -0.07511 0.00564
           151  ud020u0000   0.08188 0.00670
           156  02020u0000  -0.07795 0.00608

      printout of CI-coefficients larger than  0.05 for root  3
      energy=    -108.940339
      conf/sym  1111111111     Coeff  Weight
             1  22u0000000   0.36418 0.13263
             4  220u000000  -0.13732 0.01886
            21  2200u00000  -0.08498 0.00722
            77  220000u000  -0.63847 0.40764
            78  2200000u00  -0.17329 0.03003
            79  22000000u0   0.58353 0.34051
            92  202000u000   0.05163 0.00267
            97  ud2000u000   0.05377 0.00289
            99  ud200000u0  -0.05070 0.00257
           117  20ud00u000   0.05376 0.00289
           127  02ud00u000  -0.05375 0.00289
           129  02ud0000u0   0.05058 0.00256
           132  uudd00u000  -0.06369 0.00406
           134  uudd0000u0   0.05963 0.00356
           152  ud0200u000  -0.05374 0.00289
           157  020200u000   0.05166 0.00267

      printout of CI-coefficients larger than  0.05 for root  4
      energy=    -108.940339
      conf/sym  1111111111     Coeff  Weight
             1  22u0000000   0.13732 0.01886
             4  220u000000   0.36418 0.13263
            76  22000u0000  -0.08498 0.00722
            77  220000u000   0.17329 0.03003
            78  2200000u00  -0.63847 0.40764
            80  220000000u   0.58353 0.34051
            93  2020000u00   0.05166 0.00267
            98  ud20000u00   0.05374 0.00289
           118  20ud000u00   0.05375 0.00289
           120  20ud00000u  -0.05058 0.00256
           128  02ud000u00  -0.05376 0.00289
           133  uudd000u00  -0.06369 0.00406
           135  uudd00000u   0.05963 0.00356
           153  ud02000u00  -0.05377 0.00289
           155  ud0200000u   0.05070 0.00257
           158  0202000u00   0.05163 0.00267

      printout of CI-coefficients larger than  0.05 for root  5
      energy=    -108.869889
      conf/sym  1111111111     Coeff  Weight
             1  22u0000000  -0.70177 0.49249
             4  220u000000   0.26095 0.06810
             7  202u000000  -0.06758 0.00457
            12  uu2d000000  -0.07121 0.00507
            15  20u2000000  -0.07348 0.00540
            16  udu2000000   0.06493 0.00422
            21  2200u00000   0.16298 0.02656
            77  220000u000  -0.56197 0.31581
            78  2200000u00  -0.15529 0.02411
            79  22000000u0  -0.14881 0.02214
           132  uudd00u000  -0.05620 0.00316

      printout of CI-coefficients larger than  0.05 for root  6
      energy=    -108.869889
      conf/sym  1111111111     Coeff  Weight
             1  22u0000000  -0.26095 0.06810
             4  220u000000  -0.70177 0.49249
             8  ud2u000000   0.06493 0.00422
             9  022u000000   0.07348 0.00540
            17  02u2000000  -0.06758 0.00457
            18  uud2000000  -0.07121 0.00507
            76  22000u0000   0.16298 0.02656
            77  220000u000   0.15529 0.02411
            78  2200000u00  -0.56197 0.31581
            80  220000000u  -0.14881 0.02214
           133  uudd000u00  -0.05620 0.00316

      printout of CI-coefficients larger than  0.05 for root  7
      energy=    -108.740344
      conf/sym  1111111111     Coeff  Weight
             1  22u0000000  -0.42249 0.17849
             4  220u000000   0.15576 0.02426
            21  2200u00000   0.09804 0.00961
            77  220000u000   0.38266 0.14643
            78  2200000u00   0.10689 0.01143
            79  22000000u0   0.75387 0.56833
            80  220000000u  -0.05123 0.00262
            94  20200000u0  -0.05959 0.00355
            99  ud200000u0  -0.06185 0.00383
           104  02200000u0  -0.05579 0.00311
           119  20ud0000u0  -0.06331 0.00401
           129  02ud0000u0   0.06182 0.00382
           134  uudd0000u0   0.07344 0.00539
           149  20020000u0  -0.05790 0.00335
           154  ud020000u0   0.06329 0.00401
           159  02020000u0  -0.06031 0.00364

      printout of CI-coefficients larger than  0.05 for root  8
      energy=    -108.740344
      conf/sym  1111111111     Coeff  Weight
             1  22u0000000   0.15576 0.02426
             4  220u000000   0.42249 0.17849
            76  22000u0000  -0.09804 0.00961
            77  220000u000   0.10689 0.01143
            78  2200000u00  -0.38266 0.14643
            79  22000000u0  -0.05123 0.00262
            80  220000000u  -0.75387 0.56833
            95  202000000u   0.06031 0.00364
           100  ud2000000u   0.06329 0.00401
           105  022000000u   0.05790 0.00335
           120  20ud00000u   0.06182 0.00382
           130  02ud00000u  -0.06331 0.00401
           135  uudd00000u  -0.07344 0.00539
           150  200200000u   0.05579 0.00311
           155  ud0200000u  -0.06185 0.00383
           160  020200000u   0.05959 0.00355

      printout of CI-coefficients larger than  0.05 for root  9
      energy=    -108.735009
      conf/sym  1111111111     Coeff  Weight
             2  2u20000000   0.11337 0.01285
             3  u220000000   0.10820 0.01171
             5  2udu000000   0.08676 0.00753
             6  u2du000000  -0.08522 0.00726
            11  u2ud000000  -0.07664 0.00587
            41  2uu0d00000   0.48075 0.23112
            42  u2u0d00000   0.46075 0.21229
            44  2u0ud00000   0.46691 0.21801
            45  u20ud00000  -0.48128 0.23163
            50  u02ud00000   0.09241 0.00854
            51  0u2ud00000   0.09162 0.00839
            54  u0u2d00000   0.08642 0.00747
            55  0uu2d00000  -0.09196 0.00846
            57  u200200000  -0.09927 0.00985
           176  2u00du0000  -0.06992 0.00489

      printout of CI-coefficients larger than  0.05 for root 10
      energy=    -108.735009
      conf/sym  1111111111     Coeff  Weight
            10  2uud000000  -0.11212 0.01257
            11  u2ud000000  -0.07837 0.00614
            13  2u02000000  -0.10820 0.01171
            14  u202000000   0.11337 0.01285
           326  2uu00d0000  -0.48128 0.23163
           331  u2u00d0000  -0.46691 0.21801
           341  2u0u0d0000  -0.46075 0.21229
           346  u20u0d0000   0.48075 0.23112
           371  u02u0d0000  -0.09196 0.00846
           376  0u2u0d0000  -0.08642 0.00747
           391  u0u20d0000  -0.09162 0.00839
           396  0uu20d0000   0.09241 0.00854
           406  u200ud0000   0.08134 0.00662
           551  2u00020000   0.09927 0.00985

      Natural orbitals and occupation numbers for root  1
      sym 1:   1.933676   1.933524   0.066192   0.066479   1.000123   0.000000   0.000000   0.000000   0.000003   0.000003


      Natural orbitals and occupation numbers for root  2
      sym 1:   1.933524   1.933676   0.066479   0.066192   0.000000   1.000123   0.000000   0.000000   0.000003   0.000003


      Natural orbitals and occupation numbers for root  3
      sym 1:   1.940074   1.934142   0.055528   0.065958   0.000000   0.000000   1.004289   0.000000   0.000004   0.000006


      Natural orbitals and occupation numbers for root  4
      sym 1:   1.934142   1.940074   0.065958   0.055528   0.000000   0.000000   0.000000   1.004289   0.000006   0.000004


      Natural orbitals and occupation numbers for root  5
      sym 1:   1.961433   1.935611   1.014760   0.064790   0.000000   0.000000   0.023382   0.000000   0.000012   0.000012


      Natural orbitals and occupation numbers for root  6
      sym 1:   1.935611   1.961433   0.064790   1.014760   0.000000   0.000000   0.000000   0.023382   0.000012   0.000012


      Natural orbitals and occupation numbers for root  7
      sym 1:   1.945403   1.934068   0.000003   0.066101   0.000000   0.000000   0.046448   0.000000   1.007964   0.000012


      Natural orbitals and occupation numbers for root  8
      sym 1:   1.934068   1.945403   0.066101   0.000003   0.000000   0.000000   0.000000   0.046448   0.000012   1.007964


      Natural orbitals and occupation numbers for root  9
      sym 1:   1.462462   1.465016   0.527215   0.534522   1.009897   0.000006   0.000001   0.000000   0.000410   0.000472


      Natural orbitals and occupation numbers for root 10
      sym 1:   1.465016   1.462462   0.534522   0.527215   0.000006   1.009897   0.000000   0.000001   0.000472   0.000410


      ************************************************************************************************************************
      *                                                                                                                      *
      *                                                    Final results                                                     *
      *                                                                                                                      *
      ************************************************************************************************************************


++    Wave function specifications:
      -----------------------------

      Number of closed shell electrons          10
      Number of electrons in active shells       5
      Max number of holes in RAS1 space          0
      Max nr of electrons in RAS3 space          0
      Number of inactive orbitals                5
      Number of active orbitals                 10
      Number of secondary orbitals             104
      Spin quantum number                      0.5
      State symmetry                             1
--

++    Orbital specifications:
      -----------------------

      Symmetry species                           1
                                                 a
      Frozen orbitals                            0
      Inactive orbitals                          5
      Active orbitals                           10
      RAS1 orbitals                              0
      RAS2 orbitals                             10
      RAS3 orbitals                              0
      Secondary orbitals                       104
      Deleted orbitals                           0
      Number of basis functions                119
--

++    CI expansion specifications:
      ----------------------------

      Number of CSFs                          3300
      Number of determinants                  5400
      Number of root(s) required                10
      CI roots used                              1     2     3     4     5     6     7     8     9    10
      weights                                0.100 0.100 0.100 0.100 0.100 0.100 0.100 0.100 0.100 0.100
      highest root included in the CI           10
      Root passed to geometry opt.              10
--

++    Final optimization conditions:
      ------------------------------

      Average CI energy                            -108.86076069
      RASSCF energy for state 10                   -108.73500917
      Super-CI energy                                -0.00000000
      RASSCF energy change                            0.00000000
      Max change in MO coefficients               0.947E-03
      Max non-diagonal density matrix element    -0.273E-04
      Maximum BLB matrix element                  0.417E-05
      (orbital pair   5,  87 in symmetry   1)
      Norm of electronic gradient            0.129E+00
--


      Final state energy(ies):
      ------------------------

::    RASSCF root number  1 Total energy:   -109.01822152
::    RASSCF root number  2 Total energy:   -109.01822152
::    RASSCF root number  3 Total energy:   -108.94033889
::    RASSCF root number  4 Total energy:   -108.94033889
::    RASSCF root number  5 Total energy:   -108.86988942
::    RASSCF root number  6 Total energy:   -108.86988942
::    RASSCF root number  7 Total energy:   -108.74034443
::    RASSCF root number  8 Total energy:   -108.74034443
::    RASSCF root number  9 Total energy:   -108.73500917
::    RASSCF root number 10 Total energy:   -108.73500917

++    Molecular orbitals:
      -------------------

      Pseudonatural active orbitals and approximate occupation numbers




      Molecular orbitals for symmetry species 1: a  


      Orbital                 1         2         3         4         5         6         7         8         9        10
      Energy           -15.4746  -15.4713   -1.2874   -0.5998   -0.4485    0.0000    0.0000    0.0000    0.0000    0.0000
      Occ. No.           2.0000    2.0000    2.0000    2.0000    2.0000    1.8445    1.8445    0.2567    0.2567    0.1984

     1 N1     1s         0.7068   -0.7065   -0.0172   -0.0035   -0.0039   -0.0000    0.0000   -0.0000   -0.0000    0.0000
     2 N1     1s         0.0014    0.0013    0.6314   -0.6484   -0.2289   -0.0000    0.0000   -0.0000   -0.0000    0.0000
     3 N1     1s         0.0014   -0.0009   -0.0052    0.0025    0.0016   -0.0000    0.0000   -0.0000   -0.0000    0.0000
     4 N1     1s         0.0013   -0.0216   -0.1216   -0.2370   -0.1677   -0.0000   -0.0000   -0.0000   -0.0000    0.0000
     5 N1     1s         0.0020   -0.0077    0.0132   -0.0866   -0.1175   -0.0000    0.0000    0.0000    0.0000    0.0000
     6 N1     2px       -0.0000    0.0000   -0.0000    0.0000    0.0000    0.2771    0.5727   -0.2749   -0.7467   -0.0028
     7 N1     2px        0.0000   -0.0000   -0.0000    0.0000   -0.0000   -0.0039   -0.0080   -0.0040   -0.0109    0.0001
     8 N1     2px        0.0000   -0.0000   -0.0000    0.0000    0.0000   -0.0178   -0.0368   -0.0653   -0.1774    0.0067
     9 N1     2px        0.0000    0.0000    0.0000   -0.0000    0.0000   -0.0001   -0.0002   -0.3619   -0.9829    0.1719
    10 N1     2py       -0.0000    0.0000   -0.0000    0.0000    0.0000   -0.5727    0.2771   -0.7467    0.2749    0.1410
    11 N1     2py        0.0000   -0.0000   -0.0000    0.0000   -0.0000    0.0080   -0.0039   -0.0109    0.0040   -0.0069
    12 N1     2py        0.0000   -0.0000   -0.0000    0.0000    0.0000    0.0368   -0.0178   -0.1774    0.0653   -0.3410
    13 N1     2py        0.0000    0.0000    0.0000   -0.0000    0.0000    0.0002   -0.0001   -0.9829    0.3619   -8.7244
    14 N1     2pz       -0.0054    0.0034   -0.3415   -0.3094   -0.6824   -0.0000    0.0000   -0.0000   -0.0000    0.0000
    15 N1     2pz        0.0028   -0.0008    0.0362    0.0235    0.0441    0.0000   -0.0000    0.0000    0.0000   -0.0000
    16 N1     2pz        0.0038    0.0084    0.1302    0.1093    0.0723    0.0000   -0.0000    0.0000    0.0000   -0.0000
    17 N1     2pz        0.0076    0.0018    0.0681    0.0102   -0.1349   -0.0000    0.0000   -0.0000   -0.0000   -0.0000
    18 N1     3d2-      -0.0000    0.0000    0.0000   -0.0000   -0.0000    0.0000   -0.0000   -0.0000   -0.0000    0.0000
    19 N1     3d2-       0.0000   -0.0000   -0.0000   -0.0000    0.0000    0.0000   -0.0000   -0.0000   -0.0000    0.0000
    20 N1     3d2-      -0.0000    0.0000   -0.0000    0.0000    0.0000    0.0000   -0.0000    0.0000    0.0000   -0.0000
    21 N1     3d1-       0.0000   -0.0000    0.0000    0.0000   -0.0000    0.0167   -0.0081   -0.0064    0.0024   -0.0006
    22 N1     3d1-       0.0000    0.0000    0.0000    0.0000    0.0000    0.0278   -0.0135   -0.0026    0.0010    0.0335
    23 N1     3d1-       0.0000    0.0000   -0.0000    0.0000    0.0000    0.0033   -0.0016    0.0436   -0.0161    0.1354
    24 N1     3d0        0.0006   -0.0007    0.0206    0.0037    0.0188    0.0000   -0.0000    0.0000    0.0000   -0.0000
    25 N1     3d0       -0.0011   -0.0009    0.0161    0.0026    0.0175   -0.0000    0.0000    0.0000    0.0000   -0.0000
    26 N1     3d0       -0.0003   -0.0016   -0.0261   -0.0127   -0.0041   -0.0000    0.0000   -0.0000   -0.0000    0.0000
    27 N1     3d1+       0.0000   -0.0000    0.0000    0.0000   -0.0000   -0.0081   -0.0167   -0.0024   -0.0064    0.0000
    28 N1     3d1+       0.0000    0.0000    0.0000    0.0000    0.0000   -0.0135   -0.0278   -0.0010   -0.0026   -0.0007
    29 N1     3d1+       0.0000    0.0000   -0.0000    0.0000    0.0000   -0.0016   -0.0033    0.0161    0.0436   -0.0027
    30 N1     3d2+      -0.0000    0.0000    0.0000   -0.0000   -0.0000   -0.0000   -0.0000    0.0000   -0.0000   -0.0000
    31 N1     3d2+      -0.0000   -0.0000   -0.0000   -0.0000    0.0000   -0.0000   -0.0000    0.0000   -0.0000   -0.0000
    32 N1     3d2+       0.0000   -0.0000    0.0000    0.0000    0.0000   -0.0000   -0.0000   -0.0000    0.0000    0.0000
    33 N1     4f3-       0.0000   -0.0000    0.0000   -0.0000    0.0000    0.0000    0.0000   -0.0000   -0.0000    0.0000
    34 N1     4f3-      -0.0000   -0.0000   -0.0000    0.0000    0.0000   -0.0000   -0.0000   -0.0000   -0.0000   -0.0000
    35 N1     4f2-       0.0000   -0.0000   -0.0000    0.0000    0.0000   -0.0000    0.0000   -0.0000   -0.0000   -0.0000
    36 N1     4f2-      -0.0000   -0.0000    0.0000    0.0000   -0.0000    0.0000   -0.0000    0.0000    0.0000    0.0000
    37 N1     4f1-      -0.0000   -0.0000   -0.0000   -0.0000    0.0000   -0.0066    0.0032    0.0063   -0.0023   -0.0020
    38 N1     4f1-      -0.0000   -0.0000   -0.0000    0.0000    0.0000    0.0002   -0.0001   -0.0000    0.0000   -0.0217
    39 N1     4f0        0.0002    0.0005   -0.0079    0.0008   -0.0060    0.0000   -0.0000    0.0000    0.0000    0.0000
    40 N1     4f0        0.0005    0.0000    0.0047   -0.0002    0.0024    0.0000   -0.0000   -0.0000   -0.0000   -0.0000
    41 N1     4f1+      -0.0000   -0.0000   -0.0000   -0.0000    0.0000    0.0032    0.0066    0.0023    0.0063    0.0000
    42 N1     4f1+      -0.0000   -0.0000   -0.0000    0.0000    0.0000   -0.0001   -0.0002   -0.0000   -0.0000    0.0004
    43 N1     4f2+       0.0000   -0.0000   -0.0000    0.0000    0.0000    0.0000    0.0000    0.0000   -0.0000    0.0000
    44 N1     4f2+       0.0000   -0.0000   -0.0000    0.0000   -0.0000   -0.0000   -0.0000   -0.0000    0.0000   -0.0000
    45 N1     4f3+       0.0000    0.0000   -0.0000    0.0000   -0.0000   -0.0000    0.0000   -0.0000    0.0000    0.0000
    46 N1     4f3+      -0.0000    0.0000    0.0000    0.0000    0.0000    0.0000   -0.0000   -0.0000    0.0000   -0.0000
    47 N2     1s         0.7068    0.7065   -0.0172    0.0035   -0.0039   -0.0000    0.0000    0.0000    0.0000   -0.0000
    48 N2     1s         0.0014   -0.0013    0.6314    0.6484   -0.2289   -0.0000    0.0000    0.0000    0.0000   -0.0000
    49 N2     1s         0.0014    0.0009   -0.0052   -0.0025    0.0016   -0.0000    0.0000    0.0000    0.0000   -0.0000
    50 N2     1s         0.0013    0.0216   -0.1216    0.2370   -0.1677    0.0000   -0.0000    0.0000    0.0000   -0.0000
    51 N2     1s         0.0020    0.0077    0.0132    0.0866   -0.1175   -0.0000    0.0000   -0.0000   -0.0000   -0.0000
    52 N2     2px       -0.0000   -0.0000   -0.0000   -0.0000    0.0000    0.2771    0.5727    0.2749    0.7467    0.0028
    53 N2     2px        0.0000    0.0000   -0.0000   -0.0000   -0.0000   -0.0039   -0.0080    0.0040    0.0109   -0.0001
    54 N2     2px        0.0000    0.0000   -0.0000   -0.0000    0.0000   -0.0178   -0.0368    0.0653    0.1774   -0.0067
    55 N2     2px        0.0000   -0.0000    0.0000    0.0000    0.0000   -0.0001   -0.0002    0.3619    0.9829   -0.1719
    56 N2     2py       -0.0000   -0.0000   -0.0000   -0.0000    0.0000   -0.5727    0.2771    0.7467   -0.2749   -0.1410
    57 N2     2py        0.0000    0.0000   -0.0000   -0.0000   -0.0000    0.0080   -0.0039    0.0109   -0.0040    0.0069
    58 N2     2py        0.0000    0.0000   -0.0000   -0.0000    0.0000    0.0368   -0.0178    0.1774   -0.0653    0.3410
    59 N2     2py        0.0000   -0.0000    0.0000    0.0000    0.0000    0.0002   -0.0001    0.9829   -0.3619    8.7244
    60 N2     2pz        0.0054    0.0034    0.3415   -0.3094    0.6824    0.0000   -0.0000   -0.0000   -0.0000    0.0000
    61 N2     2pz       -0.0028   -0.0008   -0.0362    0.0235   -0.0441   -0.0000    0.0000    0.0000    0.0000   -0.0000
    62 N2     2pz       -0.0038    0.0084   -0.1302    0.1093   -0.0723   -0.0000    0.0000    0.0000    0.0000   -0.0000
    63 N2     2pz       -0.0076    0.0018   -0.0681    0.0102    0.1349    0.0000   -0.0000   -0.0000   -0.0000   -0.0000
    64 N2     3d2-       0.0000   -0.0000   -0.0000    0.0000    0.0000    0.0000   -0.0000    0.0000    0.0000   -0.0000
    65 N2     3d2-      -0.0000    0.0000    0.0000    0.0000   -0.0000    0.0000   -0.0000    0.0000    0.0000   -0.0000
    66 N2     3d2-       0.0000    0.0000   -0.0000   -0.0000    0.0000    0.0000   -0.0000   -0.0000   -0.0000    0.0000
    67 N2     3d1-      -0.0000   -0.0000   -0.0000    0.0000    0.0000   -0.0167    0.0081   -0.0064    0.0024   -0.0006
    68 N2     3d1-      -0.0000    0.0000   -0.0000    0.0000   -0.0000   -0.0278    0.0135   -0.0026    0.0010    0.0335
    69 N2     3d1-      -0.0000    0.0000    0.0000    0.0000   -0.0000   -0.0033    0.0016    0.0436   -0.0161    0.1354
    70 N2     3d0        0.0006    0.0007    0.0206   -0.0037    0.0188    0.0000   -0.0000   -0.0000   -0.0000    0.0000
    71 N2     3d0       -0.0011    0.0009    0.0161   -0.0026    0.0175   -0.0000    0.0000   -0.0000   -0.0000    0.0000
    72 N2     3d0       -0.0003    0.0016   -0.0261    0.0127   -0.0041   -0.0000    0.0000    0.0000    0.0000   -0.0000
    73 N2     3d1+      -0.0000   -0.0000   -0.0000    0.0000    0.0000    0.0081    0.0167   -0.0024   -0.0064    0.0000
    74 N2     3d1+      -0.0000    0.0000   -0.0000    0.0000   -0.0000    0.0135    0.0278   -0.0010   -0.0026   -0.0007
    75 N2     3d1+      -0.0000    0.0000    0.0000    0.0000   -0.0000    0.0016    0.0033    0.0161    0.0436   -0.0027
    76 N2     3d2+      -0.0000   -0.0000   -0.0000    0.0000   -0.0000   -0.0000   -0.0000   -0.0000    0.0000    0.0000
    77 N2     3d2+       0.0000    0.0000    0.0000    0.0000    0.0000   -0.0000   -0.0000   -0.0000    0.0000    0.0000
    78 N2     3d2+      -0.0000    0.0000    0.0000   -0.0000   -0.0000   -0.0000   -0.0000    0.0000   -0.0000   -0.0000
    79 N2     4f3-      -0.0000   -0.0000    0.0000    0.0000   -0.0000    0.0000    0.0000    0.0000    0.0000   -0.0000
    80 N2     4f3-       0.0000   -0.0000   -0.0000   -0.0000    0.0000   -0.0000   -0.0000    0.0000    0.0000    0.0000
    81 N2     4f2-      -0.0000   -0.0000   -0.0000    0.0000    0.0000    0.0000   -0.0000   -0.0000   -0.0000   -0.0000
    82 N2     4f2-      -0.0000   -0.0000   -0.0000    0.0000   -0.0000   -0.0000    0.0000    0.0000    0.0000    0.0000
    83 N2     4f1-      -0.0000    0.0000   -0.0000    0.0000    0.0000   -0.0066    0.0032   -0.0063    0.0023    0.0020
    84 N2     4f1-      -0.0000    0.0000   -0.0000   -0.0000    0.0000    0.0002   -0.0001    0.0000   -0.0000    0.0217
    85 N2     4f0       -0.0002    0.0005    0.0079    0.0008    0.0060   -0.0000    0.0000    0.0000    0.0000    0.0000
    86 N2     4f0       -0.0005    0.0000   -0.0047   -0.0002   -0.0024   -0.0000    0.0000   -0.0000   -0.0000   -0.0000
    87 N2     4f1+      -0.0000    0.0000   -0.0000    0.0000    0.0000    0.0032    0.0066   -0.0023   -0.0063   -0.0000
    88 N2     4f1+      -0.0000    0.0000   -0.0000   -0.0000    0.0000   -0.0001   -0.0002    0.0000    0.0000   -0.0004
    89 N2     4f2+       0.0000   -0.0000   -0.0000    0.0000    0.0000   -0.0000   -0.0000    0.0000   -0.0000    0.0000
    90 N2     4f2+       0.0000   -0.0000    0.0000    0.0000   -0.0000    0.0000    0.0000   -0.0000    0.0000   -0.0000
    91 N2     4f3+       0.0000   -0.0000   -0.0000   -0.0000    0.0000   -0.0000    0.0000    0.0000   -0.0000   -0.0000
    92 N2     4f3+      -0.0000   -0.0000    0.0000    0.0000   -0.0000    0.0000   -0.0000    0.0000   -0.0000    0.0000
    93 X1     1s        -0.0038   -0.0000   -0.0283    0.0000    0.1351    0.0000   -0.0000   -0.0000   -0.0000   -0.0000
    94 X1     1s        -0.0002    0.0000   -0.0030   -0.0000   -0.0300   -0.0000    0.0000    0.0000    0.0000    0.0000
    95 X1     1s         0.0002   -0.0000    0.0015   -0.0000    0.0060    0.0000   -0.0000   -0.0000   -0.0000   -0.0000
    96 X1     2px       -0.0000    0.0000   -0.0000    0.0000   -0.0000    0.0093    0.0193    0.0000    0.0000    0.0000
    97 X1     2px        0.0000    0.0000    0.0000   -0.0000    0.0000   -0.0065   -0.0135   -0.0000   -0.0000    0.0000
    98 X1     2px       -0.0000   -0.0000   -0.0000    0.0000   -0.0000    0.0022    0.0045    0.0000    0.0000   -0.0000
    99 X1     2py       -0.0000   -0.0000   -0.0000    0.0000   -0.0000   -0.0193    0.0093    0.0000   -0.0000    0.0000
   100 X1     2py        0.0000    0.0000    0.0000   -0.0000    0.0000    0.0135   -0.0065   -0.0000    0.0000   -0.0000
   101 X1     2py       -0.0000    0.0000   -0.0000   -0.0000   -0.0000   -0.0045    0.0022    0.0000   -0.0000    0.0000
   102 X1     2pz        0.0000   -0.0005    0.0000   -0.0048   -0.0000    0.0000   -0.0000    0.0000    0.0000    0.0000
   103 X1     2pz       -0.0000    0.0001   -0.0000    0.0029    0.0000    0.0000    0.0000   -0.0000   -0.0000   -0.0000
   104 X1     2pz        0.0000   -0.0000    0.0000   -0.0010   -0.0000   -0.0000   -0.0000    0.0000    0.0000    0.0000
   105 X1     3d2-      -0.0000    0.0000    0.0000   -0.0000   -0.0000   -0.0000    0.0000   -0.0000   -0.0000   -0.0000
   106 X1     3d2-       0.0000   -0.0000    0.0000   -0.0000   -0.0000    0.0000   -0.0000    0.0000    0.0000    0.0000
   107 X1     3d2-      -0.0000    0.0000   -0.0000    0.0000    0.0000   -0.0000    0.0000   -0.0000   -0.0000   -0.0000
   108 X1     3d1-      -0.0000   -0.0000    0.0000    0.0000    0.0000   -0.0000    0.0000    0.0874   -0.0322    0.8386
   109 X1     3d1-       0.0000   -0.0000   -0.0000    0.0000    0.0000   -0.0000    0.0000    0.4968   -0.1829    4.2973
   110 X1     3d1-      -0.0000    0.0000    0.0000   -0.0000    0.0000    0.0000   -0.0000   -0.2682    0.0987   -2.0899
   111 X1     3d0       -0.0024   -0.0000    0.0039    0.0000    0.0492    0.0000   -0.0000   -0.0000   -0.0000   -0.0000
   112 X1     3d0       -0.0026   -0.0000   -0.0336    0.0000    0.0386    0.0000   -0.0000   -0.0000   -0.0000   -0.0000
   113 X1     3d0        0.0003    0.0000    0.0053   -0.0000   -0.0018    0.0000   -0.0000    0.0000    0.0000    0.0000
   114 X1     3d1+       0.0000   -0.0000   -0.0000    0.0000    0.0000    0.0000    0.0000    0.0322    0.0874   -0.0165
   115 X1     3d1+       0.0000   -0.0000   -0.0000    0.0000   -0.0000    0.0000    0.0000    0.1829    0.4968   -0.0847
   116 X1     3d1+      -0.0000    0.0000    0.0000   -0.0000    0.0000   -0.0000   -0.0000   -0.0987   -0.2682    0.0412
   117 X1     3d2+       0.0000    0.0000   -0.0000   -0.0000   -0.0000    0.0000    0.0000    0.0000   -0.0000    0.0000
   118 X1     3d2+      -0.0000    0.0000    0.0000    0.0000    0.0000   -0.0000   -0.0000   -0.0000   -0.0000   -0.0000
   119 X1     3d2+       0.0000   -0.0000   -0.0000   -0.0000   -0.0000    0.0000    0.0000    0.0000   -0.0000    0.0000


      Orbital                11        12        13        14        15        16        17        18        19        20
      Energy             0.0000    0.0000    0.0000    0.0000    0.0000    0.0688    0.0688    0.0695    0.0764    0.1207
      Occ. No.           0.1984    0.1000    0.1000    0.1004    0.1004    0.0000    0.0000    0.0000    0.0000    0.0000

     1 N1     1s         0.0000    0.0000    0.0000    0.0000    0.0000   -0.0000    0.0000   -0.0009   -0.0008   -0.0000
     2 N1     1s         0.0000    0.0000    0.0000    0.0000    0.0000   -0.0000    0.0000   -0.0050   -0.0076   -0.0000
     3 N1     1s         0.0000    0.0000    0.0000    0.0000    0.0000    0.0000   -0.0000    0.0008    0.0008   -0.0000
     4 N1     1s         0.0000    0.0000    0.0000    0.0000    0.0000   -0.0000    0.0000    0.1017    0.0207   -0.0000
     5 N1     1s         0.0000    0.0000    0.0000    0.0000    0.0000   -0.0000    0.0000    1.8791   -2.2535    0.0000
     6 N1     2px        0.1410   -0.0052    0.0186    0.0102    0.1508   -0.0008   -0.0000    0.0000    0.0000    0.0240
     7 N1     2px       -0.0069    0.0062   -0.0223   -0.0001   -0.0008    0.0076    0.0001   -0.0000   -0.0000   -0.0138
     8 N1     2px       -0.3410    0.3779   -1.3506   -0.0432   -0.6398   -0.0282   -0.0004   -0.0000    0.0000    0.0530
     9 N1     2px       -8.7244   10.8663  -38.8323   -1.4754  -21.8603    0.1983    0.0029   -0.0000   -0.0000   -0.3758
    10 N1     2py        0.0028    0.0186    0.0052    0.1508   -0.0102   -0.0000    0.0008    0.0000    0.0000    0.0000
    11 N1     2py       -0.0001   -0.0223   -0.0062   -0.0008    0.0001    0.0001   -0.0076   -0.0000   -0.0000   -0.0000
    12 N1     2py       -0.0067   -1.3506   -0.3779   -0.6398    0.0432   -0.0004    0.0282   -0.0000    0.0000    0.0000
    13 N1     2py       -0.1719  -38.8323  -10.8663  -21.8603    1.4754    0.0029   -0.1983   -0.0000   -0.0000   -0.0002
    14 N1     2pz        0.0000    0.0000    0.0000    0.0000    0.0000   -0.0000    0.0000   -0.0000   -0.0071   -0.0000
    15 N1     2pz       -0.0000   -0.0000   -0.0000   -0.0000   -0.0000    0.0000   -0.0000   -0.0018    0.0030   -0.0000
    16 N1     2pz       -0.0000   -0.0000   -0.0000   -0.0000   -0.0000   -0.0000    0.0000   -0.0451   -0.0173    0.0000
    17 N1     2pz       -0.0000   -0.0000   -0.0000   -0.0000   -0.0000   -0.0000    0.0000   -0.8770   -2.3504    0.0000
    18 N1     3d2-       0.0000    0.0000    0.0000    0.0000    0.0000   -0.0000    0.0000   -0.0000    0.0000   -0.0000
    19 N1     3d2-       0.0000    0.0000    0.0000    0.0000    0.0000    0.0000   -0.0000    0.0000   -0.0000    0.0000
    20 N1     3d2-      -0.0000   -0.0000   -0.0000   -0.0000   -0.0000   -0.0000    0.0000    0.0000    0.0000   -0.0000
    21 N1     3d1-      -0.0000   -0.0066   -0.0019   -0.0035    0.0002   -0.0000    0.0001   -0.0000    0.0000   -0.0000
    22 N1     3d1-       0.0007    0.1317    0.0368    0.0713   -0.0048    0.0000   -0.0001    0.0000   -0.0000   -0.0000
    23 N1     3d1-       0.0027    0.3812    0.1067    0.1006   -0.0068   -0.0001    0.0042    0.0000    0.0000    0.0000
    24 N1     3d0       -0.0000   -0.0000   -0.0000   -0.0000   -0.0000   -0.0000    0.0000    0.0002   -0.0005    0.0000
    25 N1     3d0       -0.0000    0.0000    0.0000    0.0000    0.0000    0.0000   -0.0000   -0.0020    0.0034   -0.0000
    26 N1     3d0        0.0000    0.0000    0.0000    0.0000    0.0000   -0.0000    0.0000    0.0319   -0.0443    0.0000
    27 N1     3d1+      -0.0006    0.0019   -0.0066   -0.0002   -0.0035   -0.0001   -0.0000   -0.0000    0.0000   -0.0007
    28 N1     3d1+       0.0335   -0.0368    0.1317    0.0048    0.0713    0.0001    0.0000    0.0000   -0.0000   -0.0021
    29 N1     3d1+       0.1354   -0.1067    0.3812    0.0068    0.1006   -0.0042   -0.0001    0.0000    0.0000    0.0079
    30 N1     3d2+       0.0000   -0.0000    0.0000   -0.0000    0.0000   -0.0000   -0.0000    0.0000    0.0000   -0.0000
    31 N1     3d2+       0.0000   -0.0000    0.0000   -0.0000    0.0000    0.0000    0.0000   -0.0000   -0.0000    0.0000
    32 N1     3d2+      -0.0000    0.0000   -0.0000    0.0000   -0.0000   -0.0000   -0.0000    0.0000    0.0000   -0.0000
    33 N1     4f3-       0.0000   -0.0000   -0.0000    0.0000    0.0000    0.0000    0.0000   -0.0000    0.0000    0.0000
    34 N1     4f3-      -0.0000   -0.0000    0.0000   -0.0000    0.0000    0.0000    0.0000    0.0000   -0.0000    0.0000
    35 N1     4f2-      -0.0000    0.0000    0.0000   -0.0000   -0.0000    0.0000   -0.0000   -0.0000   -0.0000    0.0000
    36 N1     4f2-       0.0000   -0.0000   -0.0000    0.0000    0.0000   -0.0000    0.0000    0.0000    0.0000    0.0000
    37 N1     4f1-      -0.0000   -0.0052   -0.0015   -0.0053    0.0004   -0.0000    0.0004   -0.0000    0.0000    0.0000
    38 N1     4f1-      -0.0004   -0.0731   -0.0205   -0.0344    0.0023    0.0000   -0.0011   -0.0000   -0.0000   -0.0000
    39 N1     4f0        0.0000   -0.0000   -0.0000   -0.0000   -0.0000   -0.0000    0.0000    0.0006   -0.0011    0.0000
    40 N1     4f0       -0.0000   -0.0000   -0.0000   -0.0000   -0.0000    0.0000   -0.0000   -0.0040    0.0034   -0.0000
    41 N1     4f1+      -0.0020    0.0015   -0.0052   -0.0004   -0.0053   -0.0004   -0.0000   -0.0000    0.0000    0.0010
    42 N1     4f1+      -0.0217    0.0205   -0.0731   -0.0023   -0.0344    0.0011    0.0000   -0.0000   -0.0000   -0.0020
    43 N1     4f2+      -0.0000   -0.0000    0.0000    0.0000   -0.0000    0.0000    0.0000   -0.0000   -0.0000    0.0000
    44 N1     4f2+       0.0000    0.0000   -0.0000   -0.0000    0.0000   -0.0000   -0.0000   -0.0000    0.0000    0.0000
    45 N1     4f3+      -0.0000   -0.0000    0.0000    0.0000   -0.0000    0.0000   -0.0000    0.0000    0.0000   -0.0000
    46 N1     4f3+       0.0000    0.0000    0.0000    0.0000    0.0000    0.0000   -0.0000   -0.0000    0.0000    0.0000
    47 N2     1s        -0.0000   -0.0000   -0.0000   -0.0000   -0.0000   -0.0000    0.0000    0.0009   -0.0008   -0.0000
    48 N2     1s        -0.0000   -0.0000   -0.0000   -0.0000   -0.0000   -0.0000    0.0000    0.0050   -0.0076   -0.0000
    49 N2     1s        -0.0000   -0.0000   -0.0000   -0.0000   -0.0000    0.0000   -0.0000   -0.0008    0.0008   -0.0000
    50 N2     1s        -0.0000   -0.0000   -0.0000   -0.0000   -0.0000   -0.0000    0.0000   -0.1017    0.0207   -0.0000
    51 N2     1s        -0.0000   -0.0000   -0.0000   -0.0000   -0.0000   -0.0000    0.0000   -1.8791   -2.2535    0.0000
    52 N2     2px       -0.1410    0.0052   -0.0186   -0.0102   -0.1508   -0.0008   -0.0000   -0.0000    0.0000    0.0240
    53 N2     2px        0.0069   -0.0062    0.0223    0.0001    0.0008    0.0076    0.0001    0.0000   -0.0000   -0.0138
    54 N2     2px        0.3410   -0.3779    1.3506    0.0432    0.6398   -0.0282   -0.0004    0.0000    0.0000    0.0530
    55 N2     2px        8.7244  -10.8663   38.8323    1.4754   21.8603    0.1983    0.0029    0.0000   -0.0000   -0.3758
    56 N2     2py       -0.0028   -0.0186   -0.0052   -0.1508    0.0102   -0.0000    0.0008   -0.0000    0.0000    0.0000
    57 N2     2py        0.0001    0.0223    0.0062    0.0008   -0.0001    0.0001   -0.0076    0.0000   -0.0000   -0.0000
    58 N2     2py        0.0067    1.3506    0.3779    0.6398   -0.0432   -0.0004    0.0282    0.0000    0.0000    0.0000
    59 N2     2py        0.1719   38.8323   10.8663   21.8603   -1.4754    0.0029   -0.1983    0.0000   -0.0000   -0.0002
    60 N2     2pz        0.0000    0.0000    0.0000    0.0000    0.0000    0.0000   -0.0000   -0.0000    0.0071    0.0000
    61 N2     2pz       -0.0000   -0.0000   -0.0000   -0.0000   -0.0000   -0.0000    0.0000   -0.0018   -0.0030    0.0000
    62 N2     2pz       -0.0000   -0.0000   -0.0000   -0.0000   -0.0000    0.0000   -0.0000   -0.0451    0.0173   -0.0000
    63 N2     2pz       -0.0000   -0.0000   -0.0000   -0.0000   -0.0000    0.0000   -0.0000   -0.8770    2.3504   -0.0000
    64 N2     3d2-      -0.0000   -0.0000   -0.0000   -0.0000   -0.0000   -0.0000    0.0000    0.0000   -0.0000   -0.0000
    65 N2     3d2-      -0.0000   -0.0000   -0.0000   -0.0000   -0.0000    0.0000   -0.0000    0.0000    0.0000    0.0000
    66 N2     3d2-       0.0000    0.0000    0.0000    0.0000    0.0000   -0.0000    0.0000    0.0000   -0.0000   -0.0000
    67 N2     3d1-      -0.0000   -0.0066   -0.0019   -0.0035    0.0002    0.0000   -0.0001   -0.0000   -0.0000    0.0000
    68 N2     3d1-       0.0007    0.1317    0.0368    0.0713   -0.0048   -0.0000    0.0001    0.0000    0.0000    0.0000
    69 N2     3d1-       0.0027    0.3812    0.1067    0.1006   -0.0068    0.0001   -0.0042    0.0000   -0.0000   -0.0000
    70 N2     3d0        0.0000    0.0000    0.0000    0.0000    0.0000   -0.0000    0.0000   -0.0002   -0.0005    0.0000
    71 N2     3d0        0.0000   -0.0000   -0.0000   -0.0000   -0.0000    0.0000   -0.0000    0.0020    0.0034   -0.0000
    72 N2     3d0       -0.0000   -0.0000   -0.0000   -0.0000   -0.0000   -0.0000    0.0000   -0.0319   -0.0443    0.0000
    73 N2     3d1+      -0.0006    0.0019   -0.0066   -0.0002   -0.0035    0.0001    0.0000   -0.0000   -0.0000    0.0007
    74 N2     3d1+       0.0335   -0.0368    0.1317    0.0048    0.0713   -0.0001   -0.0000    0.0000    0.0000    0.0021
    75 N2     3d1+       0.1354   -0.1067    0.3812    0.0068    0.1006    0.0042    0.0001    0.0000   -0.0000   -0.0079
    76 N2     3d2+      -0.0000    0.0000   -0.0000    0.0000   -0.0000   -0.0000   -0.0000    0.0000    0.0000   -0.0000
    77 N2     3d2+      -0.0000    0.0000   -0.0000    0.0000   -0.0000    0.0000    0.0000   -0.0000   -0.0000    0.0000
    78 N2     3d2+       0.0000   -0.0000    0.0000   -0.0000    0.0000   -0.0000   -0.0000    0.0000    0.0000   -0.0000
    79 N2     4f3-      -0.0000    0.0000    0.0000   -0.0000   -0.0000    0.0000    0.0000    0.0000   -0.0000    0.0000
    80 N2     4f3-       0.0000    0.0000   -0.0000    0.0000   -0.0000    0.0000    0.0000   -0.0000    0.0000    0.0000
    81 N2     4f2-      -0.0000    0.0000    0.0000   -0.0000   -0.0000   -0.0000    0.0000   -0.0000    0.0000   -0.0000
    82 N2     4f2-       0.0000   -0.0000   -0.0000    0.0000    0.0000    0.0000   -0.0000   -0.0000   -0.0000   -0.0000
    83 N2     4f1-       0.0000    0.0052    0.0015    0.0053   -0.0004   -0.0000    0.0004    0.0000    0.0000    0.0000
    84 N2     4f1-       0.0004    0.0731    0.0205    0.0344   -0.0023    0.0000   -0.0011    0.0000   -0.0000   -0.0000
    85 N2     4f0        0.0000   -0.0000   -0.0000   -0.0000   -0.0000    0.0000   -0.0000    0.0006    0.0011   -0.0000
    86 N2     4f0       -0.0000   -0.0000   -0.0000   -0.0000   -0.0000   -0.0000    0.0000   -0.0040   -0.0034    0.0000
    87 N2     4f1+       0.0020   -0.0015    0.0052    0.0004    0.0053   -0.0004   -0.0000    0.0000    0.0000    0.0010
    88 N2     4f1+       0.0217   -0.0205    0.0731    0.0023    0.0344    0.0011    0.0000    0.0000   -0.0000   -0.0020
    89 N2     4f2+      -0.0000   -0.0000    0.0000    0.0000   -0.0000   -0.0000   -0.0000    0.0000   -0.0000   -0.0000
    90 N2     4f2+       0.0000    0.0000   -0.0000   -0.0000    0.0000    0.0000    0.0000   -0.0000    0.0000   -0.0000
    91 N2     4f3+       0.0000    0.0000   -0.0000   -0.0000    0.0000   -0.0000   -0.0000   -0.0000    0.0000   -0.0000
    92 N2     4f3+      -0.0000   -0.0000   -0.0000   -0.0000   -0.0000    0.0000   -0.0000    0.0000   -0.0000    0.0000
    93 X1     1s        -0.0000   -0.0000   -0.0000    0.0000    0.0000    0.0000   -0.0000   -0.0000    6.1169   -0.0000
    94 X1     1s         0.0000    0.0000    0.0000   -0.0000    0.0000   -0.0000    0.0000    0.0000   -5.8804    0.0000
    95 X1     1s        -0.0000   -0.0000   -0.0000    0.0000   -0.0000    0.0000   -0.0000   -0.0000    3.7446   -0.0000
    96 X1     2px        0.0000    0.0000   -0.0000   -0.0000   -0.0000   -1.2603   -0.0183   -0.0000    0.0000    2.4685
    97 X1     2px       -0.0000   -0.0000    0.0000    0.0000    0.0000    2.4735    0.0358    0.0000   -0.0000   -3.9716
    98 X1     2px        0.0000    0.0000   -0.0000   -0.0000   -0.0000   -2.3276   -0.0337   -0.0000    0.0000    1.6461
    99 X1     2py       -0.0000   -0.0000   -0.0000   -0.0000    0.0000   -0.0183    1.2603   -0.0000    0.0000    0.0015
   100 X1     2py       -0.0000    0.0000    0.0000    0.0000   -0.0000    0.0358   -2.4735    0.0000   -0.0000   -0.0024
   101 X1     2py        0.0000   -0.0000   -0.0000   -0.0000    0.0000   -0.0337    2.3276   -0.0000    0.0000    0.0010
   102 X1     2pz        0.0000    0.0000    0.0000   -0.0000   -0.0000   -0.0000    0.0000    1.8673   -0.0000    0.0000
   103 X1     2pz       -0.0000   -0.0000   -0.0000   -0.0000   -0.0000    0.0000   -0.0000   -2.8078    0.0000   -0.0000
   104 X1     2pz        0.0000    0.0000    0.0000   -0.0000   -0.0000   -0.0000    0.0000    2.4294    0.0000    0.0000
   105 X1     3d2-      -0.0000   -0.0000   -0.0000    0.0000    0.0000    0.0000   -0.0000   -0.0000    0.0000    0.0000
   106 X1     3d2-       0.0000    0.0000    0.0000   -0.0000   -0.0000   -0.0000    0.0000    0.0000   -0.0000   -0.0000
   107 X1     3d2-      -0.0000   -0.0000   -0.0000    0.0000    0.0000    0.0000   -0.0000   -0.0000    0.0000    0.0000
   108 X1     3d1-       0.0165    4.4406    1.2426    3.0876   -0.2084   -0.0000    0.0000    0.0000    0.0000   -0.0000
   109 X1     3d1-       0.0847   16.1768    4.5267    6.6627   -0.4497   -0.0000    0.0000    0.0000    0.0000    0.0000
   110 X1     3d1-      -0.0412   -2.8606   -0.8005   -0.3089    0.0208    0.0000   -0.0000   -0.0000   -0.0000   -0.0000
   111 X1     3d0       -0.0000   -0.0000   -0.0000   -0.0000   -0.0000    0.0000   -0.0000   -0.0000    0.4608   -0.0000
   112 X1     3d0       -0.0000   -0.0000   -0.0000    0.0000    0.0000    0.0000   -0.0000   -0.0000    1.1675   -0.0000
   113 X1     3d0        0.0000    0.0000    0.0000   -0.0000   -0.0000   -0.0000    0.0000    0.0000   -0.2626    0.0000
   114 X1     3d1+       0.8386   -1.2426    4.4406    0.2084    3.0876   -0.0000    0.0000    0.0000    0.0000    0.0000
   115 X1     3d1+       4.2973   -4.5267   16.1768    0.4497    6.6627   -0.0000    0.0000    0.0000    0.0000    0.0000
   116 X1     3d1+      -2.0899    0.8005   -2.8606   -0.0208   -0.3089    0.0000   -0.0000   -0.0000   -0.0000   -0.0000
   117 X1     3d2+      -0.0000    0.0000    0.0000   -0.0000   -0.0000    0.0000    0.0000   -0.0000   -0.0000    0.0000
   118 X1     3d2+       0.0000   -0.0000   -0.0000    0.0000    0.0000   -0.0000   -0.0000    0.0000    0.0000   -0.0000
   119 X1     3d2+      -0.0000    0.0000    0.0000   -0.0000    0.0000    0.0000    0.0000   -0.0000    0.0000    0.0000


      Orbital                21        22        23        24        25        26
      Energy             0.1207    0.1218    0.1302    0.1346    0.1374    0.1374
      Occ. No.           0.0000    0.0000    0.0000    0.0000    0.0000    0.0000

     1 N1     1s        -0.0000   -0.0014    0.0035    0.0089    0.0000    0.0000
     2 N1     1s        -0.0000    0.0143   -0.0189    0.0450    0.0000    0.0000
     3 N1     1s        -0.0000    0.0018   -0.0000    0.0049    0.0000   -0.0000
     4 N1     1s        -0.0000    0.1020    0.0817    0.4284   -0.0000    0.0000
     5 N1     1s         0.0000    3.2091    5.3633    3.4516   -0.0000    0.0000
     6 N1     2px       -0.0000   -0.0000   -0.0000   -0.0000   -0.0000   -0.0000
     7 N1     2px        0.0000    0.0000    0.0000   -0.0000    0.0000    0.0000
     8 N1     2px       -0.0000    0.0000   -0.0000    0.0000   -0.0000   -0.0000
     9 N1     2px        0.0002    0.0000    0.0000   -0.0000    0.0000    0.0000
    10 N1     2py        0.0240   -0.0000   -0.0000   -0.0000    0.0000   -0.0000
    11 N1     2py       -0.0138    0.0000    0.0000   -0.0000   -0.0000    0.0000
    12 N1     2py        0.0530    0.0000   -0.0000    0.0000    0.0000   -0.0000
    13 N1     2py       -0.3758    0.0000    0.0000   -0.0000   -0.0000    0.0000
    14 N1     2pz       -0.0000    0.0086   -0.0372    0.0119   -0.0000    0.0000
    15 N1     2pz       -0.0000   -0.0001   -0.0106   -0.0225    0.0000   -0.0000
    16 N1     2pz        0.0000   -0.0285    0.1015    0.2089    0.0000   -0.0000
    17 N1     2pz        0.0000   -1.5634    6.3457    5.8021    0.0000   -0.0000
    18 N1     3d2-      -0.0000   -0.0000    0.0000   -0.0000   -0.0003   -0.0019
    19 N1     3d2-       0.0000    0.0000   -0.0000    0.0000    0.0022    0.0147
    20 N1     3d2-      -0.0000   -0.0000   -0.0000    0.0000   -0.0137   -0.0912
    21 N1     3d1-      -0.0007    0.0000    0.0000    0.0000   -0.0000    0.0000
    22 N1     3d1-      -0.0021   -0.0000   -0.0000   -0.0000   -0.0000    0.0000
    23 N1     3d1-       0.0079   -0.0000    0.0000    0.0000    0.0000   -0.0000
    24 N1     3d0        0.0000    0.0000    0.0018    0.0007    0.0000   -0.0000
    25 N1     3d0       -0.0000   -0.0073   -0.0096   -0.0083   -0.0000    0.0000
    26 N1     3d0        0.0000    0.0470    0.0190   -0.1821   -0.0000    0.0000
    27 N1     3d1+       0.0000    0.0000    0.0000    0.0000    0.0000    0.0000
    28 N1     3d1+       0.0000   -0.0000   -0.0000   -0.0000    0.0000    0.0000
    29 N1     3d1+      -0.0000   -0.0000    0.0000    0.0000   -0.0000   -0.0000
    30 N1     3d2+       0.0000    0.0000   -0.0000    0.0000   -0.0019    0.0003
    31 N1     3d2+      -0.0000   -0.0000    0.0000   -0.0000    0.0147   -0.0022
    32 N1     3d2+       0.0000    0.0000    0.0000    0.0000   -0.0912    0.0137
    33 N1     4f3-       0.0000   -0.0000    0.0000    0.0000    0.0000    0.0000
    34 N1     4f3-      -0.0000   -0.0000   -0.0000   -0.0000   -0.0000   -0.0000
    35 N1     4f2-       0.0000    0.0000    0.0000   -0.0000    0.0000    0.0002
    36 N1     4f2-       0.0000   -0.0000    0.0000   -0.0000    0.0001    0.0006
    37 N1     4f1-       0.0010    0.0000   -0.0000    0.0000    0.0000   -0.0000
    38 N1     4f1-      -0.0020    0.0000   -0.0000   -0.0000   -0.0000    0.0000
    39 N1     4f0        0.0000    0.0013    0.0014   -0.0008    0.0000   -0.0000
    40 N1     4f0       -0.0000   -0.0065    0.0009    0.0188    0.0000   -0.0000
    41 N1     4f1+      -0.0000    0.0000   -0.0000    0.0000   -0.0000   -0.0000
    42 N1     4f1+       0.0000    0.0000   -0.0000   -0.0000    0.0000    0.0000
    43 N1     4f2+      -0.0000    0.0000    0.0000    0.0000    0.0002   -0.0000
    44 N1     4f2+      -0.0000   -0.0000   -0.0000   -0.0000    0.0006   -0.0001
    45 N1     4f3+       0.0000   -0.0000    0.0000   -0.0000    0.0000   -0.0000
    46 N1     4f3+       0.0000   -0.0000    0.0000    0.0000   -0.0000    0.0000
    47 N2     1s        -0.0000    0.0014    0.0035    0.0089    0.0000   -0.0000
    48 N2     1s        -0.0000   -0.0143   -0.0189    0.0450    0.0000   -0.0000
    49 N2     1s        -0.0000   -0.0018   -0.0000    0.0049   -0.0000    0.0000
    50 N2     1s        -0.0000   -0.1020    0.0817    0.4284    0.0000   -0.0000
    51 N2     1s         0.0000   -3.2091    5.3633    3.4516    0.0000   -0.0000
    52 N2     2px       -0.0000    0.0000   -0.0000   -0.0000   -0.0000   -0.0000
    53 N2     2px        0.0000   -0.0000    0.0000   -0.0000    0.0000    0.0000
    54 N2     2px       -0.0000   -0.0000   -0.0000    0.0000   -0.0000   -0.0000
    55 N2     2px        0.0002   -0.0000    0.0000   -0.0000    0.0000    0.0000
    56 N2     2py        0.0240    0.0000   -0.0000   -0.0000    0.0000   -0.0000
    57 N2     2py       -0.0138   -0.0000    0.0000   -0.0000   -0.0000    0.0000
    58 N2     2py        0.0530   -0.0000   -0.0000    0.0000    0.0000   -0.0000
    59 N2     2py       -0.3758   -0.0000    0.0000   -0.0000   -0.0000    0.0000
    60 N2     2pz        0.0000    0.0086    0.0372   -0.0119   -0.0000    0.0000
    61 N2     2pz        0.0000   -0.0001    0.0106    0.0225    0.0000   -0.0000
    62 N2     2pz       -0.0000   -0.0285   -0.1015   -0.2089    0.0000   -0.0000
    63 N2     2pz       -0.0000   -1.5634   -6.3457   -5.8021   -0.0000    0.0000
    64 N2     3d2-      -0.0000    0.0000   -0.0000    0.0000   -0.0003   -0.0019
    65 N2     3d2-       0.0000    0.0000    0.0000   -0.0000    0.0022    0.0147
    66 N2     3d2-      -0.0000   -0.0000    0.0000    0.0000   -0.0137   -0.0912
    67 N2     3d1-       0.0007    0.0000   -0.0000   -0.0000    0.0000   -0.0000
    68 N2     3d1-       0.0021   -0.0000    0.0000    0.0000    0.0000   -0.0000
    69 N2     3d1-      -0.0079   -0.0000   -0.0000   -0.0000   -0.0000    0.0000
    70 N2     3d0        0.0000   -0.0000    0.0018    0.0007    0.0000   -0.0000
    71 N2     3d0       -0.0000    0.0073   -0.0096   -0.0083    0.0000   -0.0000
    72 N2     3d0        0.0000   -0.0470    0.0190   -0.1821    0.0000   -0.0000
    73 N2     3d1+      -0.0000    0.0000   -0.0000   -0.0000   -0.0000   -0.0000
    74 N2     3d1+      -0.0000   -0.0000    0.0000    0.0000   -0.0000   -0.0000
    75 N2     3d1+       0.0000   -0.0000   -0.0000   -0.0000    0.0000    0.0000
    76 N2     3d2+       0.0000    0.0000   -0.0000    0.0000   -0.0019    0.0003
    77 N2     3d2+      -0.0000   -0.0000    0.0000   -0.0000    0.0147   -0.0022
    78 N2     3d2+       0.0000    0.0000   -0.0000    0.0000   -0.0912    0.0137
    79 N2     4f3-       0.0000   -0.0000   -0.0000    0.0000    0.0000    0.0000
    80 N2     4f3-      -0.0000    0.0000    0.0000    0.0000   -0.0000   -0.0000
    81 N2     4f2-      -0.0000    0.0000    0.0000   -0.0000   -0.0000   -0.0002
    82 N2     4f2-      -0.0000   -0.0000    0.0000    0.0000   -0.0001   -0.0006
    83 N2     4f1-       0.0010   -0.0000   -0.0000    0.0000    0.0000   -0.0000
    84 N2     4f1-      -0.0020   -0.0000   -0.0000   -0.0000   -0.0000    0.0000
    85 N2     4f0       -0.0000    0.0013   -0.0014    0.0008    0.0000   -0.0000
    86 N2     4f0        0.0000   -0.0065   -0.0009   -0.0188    0.0000   -0.0000
    87 N2     4f1+      -0.0000   -0.0000   -0.0000    0.0000   -0.0000   -0.0000
    88 N2     4f1+       0.0000   -0.0000   -0.0000   -0.0000    0.0000    0.0000
    89 N2     4f2+       0.0000    0.0000    0.0000    0.0000   -0.0002    0.0000
    90 N2     4f2+       0.0000   -0.0000   -0.0000   -0.0000   -0.0006    0.0001
    91 N2     4f3+       0.0000    0.0000    0.0000   -0.0000    0.0000   -0.0000
    92 N2     4f3+       0.0000    0.0000   -0.0000   -0.0000   -0.0000    0.0000
    93 X1     1s        -0.0000   -0.0000  -13.1002   -4.9050   -0.0000    0.0000
    94 X1     1s         0.0000    0.0000    8.7093   -0.6532    0.0000   -0.0000
    95 X1     1s        -0.0000   -0.0000   -2.9039    0.6421   -0.0000    0.0000
    96 X1     2px       -0.0015   -0.0000   -0.0000    0.0000   -0.0000   -0.0000
    97 X1     2px        0.0024    0.0000    0.0000   -0.0000    0.0000    0.0000
    98 X1     2px       -0.0010   -0.0000   -0.0000    0.0000   -0.0000   -0.0000
    99 X1     2py        2.4685   -0.0000   -0.0000    0.0000    0.0000   -0.0000
   100 X1     2py       -3.9716    0.0000    0.0000   -0.0000   -0.0000    0.0000
   101 X1     2py        1.6461   -0.0000   -0.0000    0.0000    0.0000   -0.0000
   102 X1     2pz        0.0000    3.5716    0.0000   -0.0000   -0.0000    0.0000
   103 X1     2pz       -0.0000   -4.4777    0.0000    0.0000    0.0000   -0.0000
   104 X1     2pz        0.0000    1.7511   -0.0000   -0.0000   -0.0000   -0.0000
   105 X1     3d2-       0.0000    0.0000    0.0000   -0.0000    0.0837    0.5582
   106 X1     3d2-      -0.0000   -0.0000    0.0000    0.0000   -0.1862   -1.2423
   107 X1     3d2-       0.0000    0.0000   -0.0000   -0.0000    0.2529    1.6873
   108 X1     3d1-       0.0000   -0.0000   -0.0000   -0.0000   -0.0000    0.0000
   109 X1     3d1-       0.0000   -0.0000   -0.0000   -0.0000   -0.0000    0.0000
   110 X1     3d1-      -0.0000    0.0000    0.0000    0.0000    0.0000   -0.0000
   111 X1     3d0       -0.0000   -0.0000   -1.0294   -0.4837   -0.0000    0.0000
   112 X1     3d0       -0.0000   -0.0000   -3.4717   -3.8404   -0.0000    0.0000
   113 X1     3d0        0.0000    0.0000    1.0614    2.0024    0.0000   -0.0000
   114 X1     3d1+       0.0000   -0.0000   -0.0000   -0.0000    0.0000    0.0000
   115 X1     3d1+       0.0000   -0.0000   -0.0000   -0.0000    0.0000    0.0000
   116 X1     3d1+       0.0000    0.0000    0.0000    0.0000   -0.0000   -0.0000
   117 X1     3d2+      -0.0000   -0.0000   -0.0000   -0.0000    0.5582   -0.0837
   118 X1     3d2+       0.0000    0.0000    0.0000    0.0000   -1.2423    0.1862
   119 X1     3d2+      -0.0000   -0.0000   -0.0000   -0.0000    1.6873   -0.2529
--

      Von Neumann Entropy (Root  1) =  0.92019


      Mulliken population analysis for root number:  1
      -----------------------------------------------


++    Molecular charges:
      ------------------

      Mulliken charges per centre and basis function type
      ---------------------------------------------------

                N1      N2      X1    
      1s       4.0717  4.0717 -0.1116
      2px      0.9642  0.9642  0.0060
      2pz      0.9991  0.9991  0.0019
      2py      1.7938  1.7938  0.0060
      3d2+     0.0000  0.0000 -0.0000
      3d1+     0.0262  0.0262  0.0098
      3d0      0.0011  0.0011 -0.0377
      3d1-     0.0106  0.0106 -0.6196
      3d2-     0.0000  0.0000 -0.0000
      4f3+     0.0000  0.0000  0.0000
      4f2+    -0.0000 -0.0000  0.0000
      4f1+     0.0022  0.0022  0.0000
      4f0      0.0019  0.0019  0.0000
      4f1-     0.0019  0.0019  0.0000
      4f2-    -0.0000 -0.0000  0.0000
      4f3-     0.0000  0.0000  0.0000
      Total    7.8726  7.8726 -0.7453

      N-E     -0.8726 -0.8726  0.7453

      Total electronic charge=   15.000000

      Total            charge=   -1.000000
--



      Expectation values of various properties for root number:  1
      -----------------------------------------------------------


++    Molecular properties:
      ---------------------

      Charge (e):
                      =   -1.0000
      Dipole Moment (Debye):
      Origin of the operator (Ang)=    0.0000    0.0000    0.0000
                   X=  1.9304E-08               Y= -2.5936E-07               Z= -5.7948E-14           Total=  2.6008E-07
      Center of Charge (Ang)
                     X=   -0.00000000               Y=    0.00000005               Z=    0.00000000
      Quadrupole Moment (Debye*Ang):
      Origin of the operator (Ang)=    0.0000    0.0000    0.0000
                  XX= -3.6387E+01              XY=  1.5508E+00              XZ= -1.9985E-11              YY= -8.7856E+01
                  YZ=  6.1808E-11              ZZ= -9.2838E+01
      In traceless form (Debye*Ang)
                  XX=  5.3960E+01              XY=  2.3262E+00              XZ= -2.9977E-11              YY= -2.3244E+01
                  YZ=  9.2711E-11              ZZ= -3.0716E+01
--


      Mulliken spin population analysis for root number:  1
      ---------------------------------------------------


++    Molecular charges:
      ------------------

      Mulliken spin population per centre and basis function type
      ---------------------------------------------------

                N1      N2      X1    
      1s      -0.0000 -0.0000 -0.0000
      2px      0.0008  0.0008 -0.0000
      2pz      0.0000  0.0000  0.0000
      2py      0.8304  0.8304  0.0000
      3d2+     0.0000  0.0000  0.0000
      3d1+    -0.0000 -0.0000 -0.0006
      3d0     -0.0000 -0.0000 -0.0000
      3d1-    -0.0156 -0.0156 -0.6299
      3d2-     0.0000  0.0000  0.0000
      4f3+     0.0000  0.0000  0.0000
      4f2+    -0.0000 -0.0000  0.0000
      4f1+    -0.0000 -0.0000  0.0000
      4f0     -0.0000 -0.0000  0.0000
      4f1-    -0.0004 -0.0004  0.0000
      4f2-    -0.0000 -0.0000  0.0000
      4f3-     0.0000  0.0000  0.0000
      Total    0.8152  0.8152 -0.6304

      Total electronic spin=    1.000000
--


      Von Neumann Entropy (Root  2) =  0.92019


      Mulliken population analysis for root number:  2
      -----------------------------------------------


++    Molecular charges:
      ------------------

      Mulliken charges per centre and basis function type
      ---------------------------------------------------

                N1      N2      X1    
      1s       4.0717  4.0717 -0.1116
      2px      1.7938  1.7938  0.0060
      2pz      0.9991  0.9991  0.0019
      2py      0.9642  0.9642  0.0060
      3d2+     0.0000  0.0000 -0.0000
      3d1+     0.0106  0.0106 -0.6196
      3d0      0.0011  0.0011 -0.0377
      3d1-     0.0262  0.0262  0.0098
      3d2-     0.0000  0.0000 -0.0000
      4f3+     0.0000  0.0000  0.0000
      4f2+    -0.0000 -0.0000  0.0000
      4f1+     0.0019  0.0019  0.0000
      4f0      0.0019  0.0019  0.0000
      4f1-     0.0022  0.0022  0.0000
      4f2-    -0.0000 -0.0000  0.0000
      4f3-     0.0000  0.0000  0.0000
      Total    7.8726  7.8726 -0.7453

      N-E     -0.8726 -0.8726  0.7453

      Total electronic charge=   15.000000

      Total            charge=   -1.000000
--



      Expectation values of various properties for root number:  2
      -----------------------------------------------------------


++    Molecular properties:
      ---------------------

      Charge (e):
                      =   -1.0000
      Dipole Moment (Debye):
      Origin of the operator (Ang)=    0.0000    0.0000    0.0000
                   X= -5.5865E-07               Y= -1.1472E-08               Z= -1.2916E-11           Total=  5.5877E-07
      Center of Charge (Ang)
                     X=    0.00000012               Y=    0.00000000               Z=    0.00000000
      Quadrupole Moment (Debye*Ang):
      Origin of the operator (Ang)=    0.0000    0.0000    0.0000
                  XX= -8.7856E+01              XY= -1.5508E+00              XZ=  2.0068E-11              YY= -3.6387E+01
                  YZ= -1.1946E-11              ZZ= -9.2838E+01
      In traceless form (Debye*Ang)
                  XX= -2.3244E+01              XY= -2.3262E+00              XZ=  3.0102E-11              YY=  5.3960E+01
                  YZ= -1.7919E-11              ZZ= -3.0716E+01
--


      Mulliken spin population analysis for root number:  2
      ---------------------------------------------------


++    Molecular charges:
      ------------------

      Mulliken spin population per centre and basis function type
      ---------------------------------------------------

                N1      N2      X1    
      1s      -0.0000 -0.0000 -0.0000
      2px      0.8304  0.8304  0.0000
      2pz      0.0000  0.0000  0.0000
      2py      0.0008  0.0008 -0.0000
      3d2+     0.0000  0.0000  0.0000
      3d1+    -0.0156 -0.0156 -0.6299
      3d0     -0.0000 -0.0000 -0.0000
      3d1-    -0.0000 -0.0000 -0.0006
      3d2-     0.0000  0.0000  0.0000
      4f3+     0.0000  0.0000  0.0000
      4f2+    -0.0000 -0.0000  0.0000
      4f1+    -0.0004 -0.0004  0.0000
      4f0     -0.0000 -0.0000  0.0000
      4f1-    -0.0000 -0.0000  0.0000
      4f2-    -0.0000 -0.0000  0.0000
      4f3-     0.0000  0.0000  0.0000
      Total    0.8152  0.8152 -0.6304

      Total electronic spin=    1.000000
--


      Von Neumann Entropy (Root  3) =  0.89431


      Mulliken population analysis for root number:  3
      -----------------------------------------------


++    Molecular charges:
      ------------------

      Mulliken charges per centre and basis function type
      ---------------------------------------------------

                N1      N2      X1    
      1s       4.0717  4.0717 -0.1116
      2px      0.9634  0.9634  0.0060
      2pz      0.9991  0.9991  0.0019
      2py     -1.6587 -1.6587  0.0060
      3d2+     0.0000  0.0000 -0.0000
      3d1+     0.0262  0.0262  0.0105
      3d0      0.0011  0.0011 -0.0377
      3d1-     0.1148  0.1148  6.0683
      3d2-     0.0000  0.0000 -0.0000
      4f3+     0.0000  0.0000  0.0000
      4f2+    -0.0000 -0.0000  0.0000
      4f1+     0.0022  0.0022  0.0000
      4f0      0.0019  0.0019  0.0000
      4f1-     0.0066  0.0066  0.0000
      4f2-    -0.0000 -0.0000  0.0000
      4f3-     0.0000  0.0000  0.0000
      Total    4.5283  4.5283  5.9434

      N-E      2.4717  2.4717 -5.9434

      Total electronic charge=   15.000000

      Total            charge=   -1.000000
--



[...]
         117  ( 2:1:   2/   9)   20ud00u000       0.065525       0.004293
         127  ( 2:1:   2/  11)   02ud00u000      -0.065481       0.004288
         132  ( 2:1:   2/  12)   uudd00u000      -0.077727       0.006041
         147  ( 2:1:   2/  15)   200200u000       0.059582       0.003550
         152  ( 2:1:   2/  16)   ud0200u000      -0.065491       0.004289
         157  ( 2:1:   2/  17)   020200u000       0.062950       0.003963

  The CI coefficients for the MIXED state nr.   7
--------------------------------------------------------------------------------
 CI COEFFICIENTS LARGER THAN  0.50D-01
  Occupation of active orbitals, and spin coupling
  of open shells. (u,d: Spin up or down).
  SGUGA info is (Midvert:IsyUp:UpperWalk/LowerWalk)
        Conf  SGUGA info        Occupation     Coefficient         Weight
           1  ( 1:1:   1/   1)   22u0000000       0.116173       0.013496
           4  ( 1:1:   1/   4)   220u000000       0.148342       0.022005
          78  ( 2:1:   3/   1)   2200000u00      -0.510073       0.260174
          79  ( 2:1:   4/   1)   22000000u0      -0.295733       0.087458
          80  ( 2:1:   5/   1)   220000000u      -0.742486       0.551286
          95  ( 2:1:   5/   4)   202000000u       0.059595       0.003552
         100  ( 2:1:   5/   5)   ud2000000u       0.062293       0.003880
         105  ( 2:1:   5/   6)   022000000u       0.056866       0.003234
         120  ( 2:1:   5/   9)   20ud00000u       0.061755       0.003814
         130  ( 2:1:   5/  11)   02ud00000u      -0.062520       0.003909
         133  ( 2:1:   3/  12)   uudd000u00      -0.050875       0.002588
         135  ( 2:1:   5/  12)   uudd00000u      -0.073323       0.005376
         150  ( 2:1:   5/  15)   200200000u       0.056194       0.003158
         155  ( 2:1:   5/  16)   ud0200000u      -0.061982       0.003842
         160  ( 2:1:   5/  17)   020200000u       0.059493       0.003539

  The CI coefficients for the MIXED state nr.   8
--------------------------------------------------------------------------------
 CI COEFFICIENTS LARGER THAN  0.50D-01
  Occupation of active orbitals, and spin coupling
  of open shells. (u,d: Spin up or down).
  SGUGA info is (Midvert:IsyUp:UpperWalk/LowerWalk)
        Conf  SGUGA info        Occupation     Coefficient         Weight
           1  ( 1:1:   1/   1)   22u0000000      -0.148342       0.022005
           4  ( 1:1:   1/   4)   220u000000       0.116173       0.013496
          77  ( 2:1:   2/   1)   220000u000       0.510073       0.260174
          79  ( 2:1:   4/   1)   22000000u0       0.742486       0.551286
          80  ( 2:1:   5/   1)   220000000u      -0.295733       0.087458
          94  ( 2:1:   4/   4)   20200000u0      -0.059493       0.003539
          99  ( 2:1:   4/   5)   ud200000u0      -0.061982       0.003842
         104  ( 2:1:   4/   6)   02200000u0      -0.056194       0.003158
         119  ( 2:1:   4/   9)   20ud0000u0      -0.062520       0.003909
         129  ( 2:1:   4/  11)   02ud0000u0       0.061755       0.003814
         132  ( 2:1:   2/  12)   uudd00u000       0.050875       0.002588
         134  ( 2:1:   4/  12)   uudd0000u0       0.073323       0.005376
         149  ( 2:1:   4/  15)   20020000u0      -0.056866       0.003234
         154  ( 2:1:   4/  16)   ud020000u0       0.062293       0.003880
         159  ( 2:1:   4/  17)   02020000u0      -0.059595       0.003552

  The CI coefficients for the MIXED state nr.   9
--------------------------------------------------------------------------------
 CI COEFFICIENTS LARGER THAN  0.50D-01
  Occupation of active orbitals, and spin coupling
  of open shells. (u,d: Spin up or down).
  SGUGA info is (Midvert:IsyUp:UpperWalk/LowerWalk)
        Conf  SGUGA info        Occupation     Coefficient         Weight
           2  ( 1:1:   1/   2)   2u20000000       0.108489       0.011770
           3  ( 1:1:   1/   3)   u220000000       0.103157       0.010641
           5  ( 1:1:   1/   5)   2udu000000       0.083684       0.007003
           6  ( 1:1:   1/   6)   u2du000000      -0.080634       0.006502
          11  ( 1:1:   1/  11)   u2ud000000      -0.084669       0.007169
          13  ( 1:1:   1/  13)   2u02000000      -0.052226       0.002728
          14  ( 1:1:   1/  14)   u202000000       0.050977       0.002599
          41  ( 1:1:   1/  41)   2uu0d00000       0.479412       0.229836
          42  ( 1:1:   1/  42)   u2u0d00000       0.459684       0.211309
          44  ( 1:1:   1/  44)   2u0ud00000       0.465863       0.217029
          45  ( 1:1:   1/  45)   u20ud00000      -0.479273       0.229703
          50  ( 1:1:   1/  50)   u02ud00000       0.092058       0.008475
          51  ( 1:1:   1/  51)   0u2ud00000       0.091159       0.008310
          54  ( 1:1:   1/  54)   u0u2d00000       0.085946       0.007387
          55  ( 1:1:   1/  55)   0uu2d00000      -0.092175       0.008496
          57  ( 1:1:   1/  57)   u200200000      -0.098989       0.009799
         176  ( 2:1:   1/  21)   2u00du0000      -0.069715       0.004860

  The CI coefficients for the MIXED state nr.  10
--------------------------------------------------------------------------------
 CI COEFFICIENTS LARGER THAN  0.50D-01
  Occupation of active orbitals, and spin coupling
  of open shells. (u,d: Spin up or down).
  SGUGA info is (Midvert:IsyUp:UpperWalk/LowerWalk)
        Conf  SGUGA info        Occupation     Coefficient         Weight
           2  ( 1:1:   1/   2)   2u20000000      -0.050977       0.002599
           3  ( 1:1:   1/   3)   u220000000      -0.052226       0.002728
          10  ( 1:1:   1/  10)   2uud000000      -0.112165       0.012581
          11  ( 1:1:   1/  11)   u2ud000000      -0.069617       0.004847
          13  ( 1:1:   1/  13)   2u02000000      -0.103157       0.010641
          14  ( 1:1:   1/  14)   u202000000       0.108489       0.011770
         326  ( 3:1:   1/   1)   2uu00d0000      -0.479273       0.229703
         331  ( 3:1:   1/   2)   u2u00d0000      -0.465863       0.217029
         341  ( 3:1:   1/   4)   2u0u0d0000      -0.459684       0.211309
         346  ( 3:1:   1/   5)   u20u0d0000       0.479412       0.229836
         371  ( 3:1:   1/  10)   u02u0d0000      -0.092175       0.008496
         376  ( 3:1:   1/  11)   0u2u0d0000      -0.085946       0.007387
         391  ( 3:1:   1/  14)   u0u20d0000      -0.091159       0.008310
         396  ( 3:1:   1/  15)   0uu20d0000       0.092058       0.008475
         406  ( 3:1:   1/  17)   u200ud0000       0.079083       0.006254
         551  ( 4:1:   1/   1)   2u00020000       0.098989       0.009799

--

--- Stop Module: caspt2 at Sun Jun 28 20:26:54 2020 /rc=_RC_ALL_IS_WELL_ ---
*** files: xmldump
    saved to directory /home/gayverjr/OpenCAP/n2_molcas/full_N2_example/anion
--- Module caspt2 spent 3 minutes 14 seconds ---

--- Start Module: rassi at Sun Jun 28 20:26:54 2020 ---

()()()()()()()()()()()()()()()()()()()()()()()()()()()()()()()()()()()()()()()()()()()()()()()()()()

                                               &RASSI

                                   only a single process is used
                       available to each process: 20 GB of memory, 16 threads
                                             pid: 42213
()()()()()()()()()()()()()()()()()()()()()()()()()()()()()()()()()()()()()()()()()()()()()()()()()()


      ********************************************************************************
      *                                                                              *
      *                             General data section                             *
      *                                                                              *
      ********************************************************************************

   Specific data for JOBIPH file JOBIPH                                                                                                                          
   -------------------------------------

   Header from SEWARD:
                                                                               
        Integrals generated by seward 4.2.0  , Sun Jun 28 20:22:33 2020        

   CASSCF title (first line only):
       (No title given)                                                        

   STATE IRREP:                            1
   SPIN MULTIPLICITY:                      2
   ACTIVE ELECTRONS:                       5
   MAX RAS1 HOLES:                         0
   MAX RAS3 ELECTRONS:                     0
   NR OF CONFIG:                        3300

  Info: creating TDMFILE
        estimated file size                 14935 kB
        TDMs in AO format


   The following data are common to all the states:
   ------------------------------------------------
   (note: frozen counts as inactive, deleted as secondary)

      Nr of irreps: 1

                 Total     No./Irrep 
      Irrep                  1
                             a

      INACTIVE       5       5
      ACTIVE        10      10
      SECONDARY    104     104
      BASIS        119     119

      RAS1           0       0
      RAS2          10      10
      RAS3           0       0

        MATRIX ELEMENTS WILL BE COMPUTED FOR THE FOLLOWING ONE-ELECTRON OPERATORS, UNLESS ZERO BY SYMMETRY.
   (Herm=Hermitian, Anti=Antihermitian, Sing=Singlet operator, Trip=Triplet operator)
     MLTPL  0   1 (HERMSING)     MLTPL  1   1 (HERMSING)     MLTPL  1   2 (HERMSING)
     MLTPL  1   3 (HERMSING)     MLTPL  2   1 (HERMSING)     MLTPL  2   2 (HERMSING)
     MLTPL  2   3 (HERMSING)     MLTPL  2   4 (HERMSING)     MLTPL  2   5 (HERMSING)
     MLTPL  2   6 (HERMSING)     VELOCITY   1 (ANTISING)     VELOCITY   2 (ANTISING)
     VELOCITY   3 (ANTISING)     ANGMOM     1 (ANTISING)     ANGMOM     2 (ANTISING)
     ANGMOM     3 (ANTISING)     MLTPV  2   1 (ANTISING)     MLTPV  2   2 (ANTISING)
     MLTPV  2   3 (ANTISING)     MLTPV  2   4 (ANTISING)     MLTPV  2   5 (ANTISING)
     MLTPV  2   6 (ANTISING)

       EIGENSTATES OF A SPIN-FREE HAMILTONIAN WILL BE COMPUTED BASED ON:

  a (effective) Hamiltonian matrix that was read from the wavefunction file(s).
  SO coupling elements will be added.
       EIGENSTATES OF SPIN-ORBIT HAMILTONIAN WILL BE COMPUTED
        MATRIX ELEMENTS OVER SPIN EIGENSTATES FOR:
     MLTPL  0   1 (HERMSING)     MLTPL  1   1 (HERMSING)     MLTPL  1   2 (HERMSING)
     MLTPL  1   3 (HERMSING)     MLTPL  2   1 (HERMSING)     MLTPL  2   2 (HERMSING)
     MLTPL  2   3 (HERMSING)     MLTPL  2   4 (HERMSING)     MLTPL  2   5 (HERMSING)
     MLTPL  2   6 (HERMSING)     VELOCITY   1 (ANTISING)     VELOCITY   2 (ANTISING)
     VELOCITY   3 (ANTISING)     ANGMOM     1 (ANTISING)     ANGMOM     2 (ANTISING)
     ANGMOM     3 (ANTISING)     MLTPV  2   1 (ANTISING)     MLTPV  2   2 (ANTISING)
     MLTPV  2   3 (ANTISING)     MLTPV  2   4 (ANTISING)     MLTPV  2   5 (ANTISING)
     MLTPV  2   6 (ANTISING)

  Nr of states:                   10

   State:        1   2   3   4   5   6   7   8   9  10
  JobIph:        1   1   1   1   1   1   1   1   1   1
 Root nr:        1   2   3   4   5   6   7   8   9  10

  HAMILTONIAN MATRIX FOR THE ORIGINAL STATES:

  Diagonal, with energies
   -109.30875324   -109.30875324   -109.24332528   -109.24332528   -109.22433832
   -109.22433834   -109.07638509   -109.07638513   -109.03076841   -109.03076841

      OVERLAP MATRIX FOR THE ORIGINAL STATES:

  Diagonal, with elements
      1.00000000      1.00000000      1.00000000      1.00000000      1.00000000
      1.00000000      1.00000000      1.00000000      1.00000000      1.00000000

::    RASSI State    1     Total energy:   -109.30875324
::    RASSI State    2     Total energy:   -109.30875324
::    RASSI State    3     Total energy:   -109.24332528
::    RASSI State    4     Total energy:   -109.24332528
::    RASSI State    5     Total energy:   -109.22433832
::    RASSI State    6     Total energy:   -109.22433834
::    RASSI State    7     Total energy:   -109.07638509
::    RASSI State    8     Total energy:   -109.07638513
::    RASSI State    9     Total energy:   -109.03076841
::    RASSI State   10     Total energy:   -109.03076841



      ****************************************************************************************************
      *                                                                                                  *
      *                                         Spin-free section                                        *
      *                                                                                                  *
      *                 Note: index according to input order, order according to energy.                 *
      *                                                                                                  *
      ****************************************************************************************************



  SPIN-FREE ENERGIES:
  (Shifted by EMIN (a.u.) =       -109.3087532378)

 SF State       Relative EMIN(au)   Rel lowest level(eV)    D:o, cm**(-1)

     1             0.0000000000        0.0000000000              0.0000
     2             0.0000000016        0.0000000443              0.0004
     4             0.0654279577        1.7803854294          14359.7769
     3             0.0654279623        1.7803855536          14359.7779
     6             0.0844149018        2.2970464989          18526.9295
     5             0.0844149163        2.2970468922          18526.9326
     8             0.2323681101        6.3230583941          50998.9053
     7             0.2323681453        6.3230593541          50998.9130
     9             0.2779848245        7.5643524290          61010.6169
    10             0.2779848255        7.5643524563          61010.6171

++ Dipole transition strengths (spin-free states):
   -----------------------------------------------
     for osc. strength at least  1.00000000E-05

      From   To        Osc. strength     Einstein coefficients Ax, Ay, Az (sec-1)    Total A (sec-1)
     -----------------------------------------------------------------------------------------------
         4   10       8.37517446E-05  9.69367531E-19  3.15893645E-24  1.21578010E+05  1.21578010E+05
         3    9       8.37517424E-05  2.96552480E-20  1.14723366E-18  1.21578000E+05  1.21578000E+05
         6   10       2.43633613E-04  2.53356521E-18  5.15426290E-24  2.93307958E+05  2.93307958E+05
         5    9       2.43633594E-04  6.60585468E-20  2.86160286E-18  2.93307888E+05  2.93307888E+05
         8   10       1.63640842E-05  1.18074639E-20  1.00735691E-25  1.09408386E+03  1.09408386E+03
         7    9       1.63640711E-05  2.56719241E-22  1.12298107E-20  1.09408125E+03  1.09408125E+03
     -----------------------------------------------------------------------------------------------
--

++ Velocity transition strengths (spin-free states):
   -------------------------------------------------
     for osc. strength at least  1.00000000E-05

      From   To        Osc. strength     Einstein coefficients Ax, Ay, Az (sec-1)    Total A (sec-1)
     -----------------------------------------------------------------------------------------------
         4   10       2.15007524E-04  4.16771439E-19  2.38510443E-20  3.12115132E+05  3.12115132E+05
         3    9       2.15007530E-04  5.65312201E-20  1.19005986E-20  3.12115124E+05  3.12115124E+05
         6   10       7.83932294E-04  1.31068553E-18  7.36524883E-20  9.43767890E+05  9.43767890E+05
         5    9       7.83932357E-04  1.74358459E-19  4.86081137E-20  9.43767814E+05  9.43767814E+05
         8   10       1.09214365E-03  1.36788955E-19  4.80854672E-21  7.30194688E+04  7.30194688E+04
         7    9       1.09214451E-03  1.14761472E-20  2.66247030E-22  7.30194108E+04  7.30194108E+04
     -----------------------------------------------------------------------------------------------
--

++ Length and velocity gauge comparison (spin-free states):
   --------------------------------------------------------

 --------------------------------------------------
 A comparison between the dipole oscillator strengths in 
 length and velocity gauge will be performed

 All dipole oscillator differences above the tolerance of   0.10000000000000001       will be printed 

 Due to basis set deficiency these oscillator may be problematic 

 The tolerance is defined as ABS(1-O_l/O_v) 
 O_l : dipole oscillator strength in length gauge
 O_p : dipole oscillator strength in velocity gauge
 --------------------------------------------------

  Problematic transitions have been found

      From   To       Difference (%) Osc. st. (len.) Osc. st. (vel.)
     ---------------------------------------------------------------
         4   10            61.047063  8.37517446E-05  2.15007524E-04
         3    9            61.047065  8.37517424E-05  2.15007530E-04
         6   10            68.921600  2.43633613E-04  7.83932294E-04
         5    9            68.921605  2.43633594E-04  7.83932357E-04
         8   10            98.501655  1.63640842E-05  1.09214365E-03
         7    9            98.501657  1.63640711E-05  1.09214451E-03
     ---------------------------------------------------------------

 Number of problematic transitions =                     6

--

 Electric-dipole - electric-octupole not included
 Electric-dipole - magnetic-quadrupole not included


      ****************************************************************************************************
      *                                                                                                  *
      *                                    Special properties section                                    *
      *                                                                                                  *
      ****************************************************************************************************


++ I/O STATISTICS
 
  I. General I/O information
  - - - - - - - - - - - - - - - - - - - - - - - - - - - - - - - - - - - - - - - - - - -
  Unit  Name          Flsize      Write/Read            MBytes           Write/Read
                      (MBytes)       Calls              In/Out           Time, sec.
  - - - - - - - - - - - - - - - - - - - - - - - - - - - - - - - - - - - - - - - - - - -
   1  SCRATCH           0.41 .      10/      55 .      0.4/      2.3 .       0/       0
   2  ANNI              0.00 .       0/       0 .      0.0/      0.0 .       0/       0
   3  RUNFILE          13.56 .     182/    3450 .      1.3/     25.0 .       0/       0
   4  ONEINT            2.94 .       0/   11001 .      0.0/   3392.7 .       0/       0
   5  JOBIPH            4.11 .       0/      98 .      0.0/      1.9 .       0/       0
   6  TDMFILE          17.89 .     165/     110 .     17.8/     11.9 .       0/       0
  - - - - - - - - - - - - - - - - - - - - - - - - - - - - - - - - - - - - - - - - - - -
   *  TOTAL            38.91 .     357/   14714 .     19.5/   3433.7 .       0/       0
  - - - - - - - - - - - - - - - - - - - - - - - - - - - - - - - - - - - - - - - - - - -
 
  II. I/O Access Patterns
  - - - - - - - - - - - - - - - - - - - -
  Unit  Name               % of random
                         Write/Read calls
  - - - - - - - - - - - - - - - - - - - -
   1  SCRATCH             90.0/ 100.0
   2  ANNI                 0.0/   0.0
   3  RUNFILE             28.6/  10.9
   4  ONEINT               0.0/  32.9
   5  JOBIPH               0.0/  75.5
   6  TDMFILE             99.4/ 100.0
  - - - - - - - - - - - - - - - - - - - -
--
--- Stop Module: rassi at Sun Jun 28 20:26:56 2020 /rc=_RC_ALL_IS_WELL_ ---
*** files: anion_xms.rassi.h5 xmldump
    saved to directory /home/gayverjr/OpenCAP/n2_molcas/full_N2_example/anion
--- Module rassi spent 1 second ---

.##################.
.# Happy landing! #.
.##################.

    Timing: Wall=264.32 User=2088.91 System=98.58
