******************************************************
*** WorkDir and CurrDir are the same, not cleaned! ***
******************************************************
   This run of MOLCAS is using the pymolcas driver

                             OPE
                             OPE          NMOL  CASOP  ENMOLC A   SO
                 OPE        NMOLC        AS  OP EN  MO LC     AS  OP
                OPENM       OL CA        SO  PE NM  OL CA     SOP EN
                OP EN      MO   LC       AS  OP ENMOL  CASO   PENMOL
                OP  EN     MO   LC       AS  OP EN     MO     LC ASO
               OP   E  NMOL  C  AS       OP  EN MO     LC     AS  OP
               OP  E   NMO   LC AS        OPEN  MO     LCASOP EN   M
               O  PEN   MO  LCA  SO
            OPE   NMO   L   CAS    OP
        OPENMOL  CASOP     ENMOL   CASOPE
     OPENMOLCA   SOPENMOLCASOPEN   MOLCASOPE
    OPENMOLCAS   OP           EN   MOL    CAS
    OPENMOLCAS       OP  ENM        O     LCA
    OPENMOLCAS    OPEN  MOLCASO     P  E  NMO
    OPENMOLCAS     OP               E  N  MOL
    OPENMOLCA   SO           PENM   O  L  CAS    OPEN    MO    LCAS
    OPENMOLCA   SOP           ENM   O  L  CAS   OP  EN  MOLC  AS   O
    OPENMOLCA   SOPE           NM      O  LCA   S      OP  EN MO
    OPENMOLC                AS         O  PEN   M      OL  CA  SOPE
    OPENMO        LCASOPE  NMOL        C  ASO   P      ENMOLC     AS
    OPE     NMO      LCA  SO     P     E   NM   OL  CA SO  PE N   MO
          OPENMOLCA            SOPE   NMO        LCAS  O    P  ENMO
     OPENMOLCASOPENMOLCASOPENMOLCASOPENMOLCA
        OPENMOLCASOPENMOLCASOPENMOLCASOPE
            OPENMOLCASOPENMOLCASOPENM
               OPENMOLCASOPENMOLCA        version: 19.11
                   OPENMOLCASO
                       OPE                tag: 1162-ga18ab34

 OpenMolcas is free software; you can redistribute it and/or modify it
 under the terms of the GNU Lesser General Public License version 2.1.
 OpenMolcas is distributed in the hope that it will be useful, but it
 is provided "as is" and without any express or implied warranties.
 For more details see the full text of the license in the file
 LICENSE or in <http://www.gnu.org/licenses/>.

                 Copyright (C) The OpenMolcas Authors
           For the author list and the recommended citation,
                   consult the file CONTRIBUTORS.md

           *************************************************
           * pymolcas version py2.08                       *
           *   build bed633bbe89b7744c23cdbfc3f64969c      *
           *   (after the EMIL interpreter by V. Veryazov) *
           *************************************************

configuration info
------------------
C Compiler ID: GNU
C flags: -std=gnu99 -fopenmp
Fortran Compiler ID: GNU
Fortran flags: -fno-aggressive-loop-optimizations -cpp -fdefault-integer-8 -fopenmp
Definitions: _MOLCAS_;_I8_;_LINUX_;_MKL_;_DMRG_
Parallel: OFF (GA=OFF)


   ---------------------------------------------------------------------------
  |
  |             Project: gs_ms
  |      Submitted from: /scratch/gayverjr/gs_ms.2952561382
  |        Scratch area: /scratch/gayverjr/gs_ms.2952561382
  |     Save outputs to: /home/gayverjr/OpenCAP/molcas_test/full_N2_example/gs
  |              Molcas: /home/qcsoftware/OpenMolcas/qcmaquis_build/build
  |
  | Scratch area is NOT empty
  |
  |      MOLCAS_DRIVER = /home/qcsoftware/bin/pymolcas
  | MOLCAS_NEW_WORKDIR = YES
  |      MOLCAS_NPROCS = 16
  |      MOLCAS_SOURCE = /home/qcsoftware/OpenMolcas/Molcas_src
  |   MOLCAS_STRUCTURE = 0
  |
   ---------------------------------------------------------------------------

++ ---------   Input file   ---------

&GATEWAY
Expert
Basis set
 N.aug-cc-pvtz
 N1  0.0  0.0  1.039
 N2  0.0  0.0  -1.039
End of Basis
Basis set
X ..... / inline
   0.00   2
    3    3
               0.0288
               0.0144
               0.0072
      1.00000000             0.00000000             0.00000000
      0.00000000             1.00000000             0.00000000
      0.00000000             0.00000000             1.00000000
     3    3
               0.02455
               0.012275
               0.0061375
     1.00000000             0.00000000             0.00000000
     0.00000000             1.00000000             0.00000000
     0.00000000             0.00000000             1.00000000
     3    3
               0.0755
               0.03775
               0.018875
      1.000000E+00           0.000000E+00           0.000000E+00           0.00000000
      0.000000E+00           1.000000E+00           0.000000E+00           0.00000000
      0.000000E+00           0.000000E+00           1.000000E+00           0.00000000
X1  0.000  0.000  0.000
End of basis

&SEWARD

>>> COPY /home/gayverjr/OpenCAP/molcas_test/full_N2_example/orbs/casscf/cas_orbs.RasOrb INPORB

&RASSCF
LUMORB
Title = cas 3,9 test
Inactive = 5
Ras2=10
TDM
NActEl=4,0,0
CIROOT= 10 10 1
Alter = 6
1 10 18
1 11 19
1 12 28
1 13 29
1 14 37
1 15 38

&CASPT2
MAXIter = 50
MULtistate = all

&RASSI
TRD1
Heff
EJOB

-- ----------------------------------

--- Start Module: gateway at Mon Jun 22 16:09:21 2020 ---

()()()()()()()()()()()()()()()()()()()()()()()()()()()()()()()()()()()()()()()()()()()()()()()()()()

                                              &GATEWAY

                                   only a single process is used
                       available to each process: 20 GB of memory, 16 threads
                                             pid: 38220
()()()()()()()()()()()()()()()()()()()()()()()()()()()()()()()()()()()()()()()()()()()()()()()()()()

 ###############################################################################
 ###############################################################################
 ###                                                                         ###
 ###                                                                         ###
 ###    WARNING:  EXPERT option is ON!                                       ###
 ###                                                                         ###
 ###                                                                         ###
 ###############################################################################
 ###############################################################################

++    Symmetry information:
      ---------------------

                    Character Table for C1 

                             E  
                    a        1  x, y, xy, Rz, z, xz, Ry, yz, Rx, I
--


++    Basis set information:
      ----------------------


      Basis set label: N.AUG-CC-PVTZ.........

      Electronic valence basis set:
      ------------------
      Associated Effective Charge   7.000000 au
      Associated Actual Charge      7.000000 au
      Nuclear Model: Point charge

      Shell  nPrim  nBasis  Cartesian Spherical Contaminant
         s      11       5        X                  
         p       6       4        X                  
         d       3       3                 X         
         f       2       2                 X         


      Basis set label: X...............................................................................

      Electronic valence basis set:
      ------------------
      Associated Effective Charge   0.000000 au
      Associated Actual Charge      0.000000 au
      Nuclear Model: Point charge

      Shell  nPrim  nBasis  Cartesian Spherical Contaminant
         s       3       3        X                  
         p       3       3        X                  
         d       3       3                 X         
--


++    Molecular structure info:
      -------------------------

                    ************************************************ 
                    **** Cartesian Coordinates / Bohr, Angstrom **** 
                    ************************************************ 

     Center  Label                x              y              z                     x              y              z
        1      N1               0.000000       0.000000       1.039000              0.000000       0.000000       0.549815
        2      N2               0.000000       0.000000      -1.039000              0.000000       0.000000      -0.549815
        3      X1               0.000000       0.000000       0.000000              0.000000       0.000000       0.000000

                    *************************************** 
                    *    InterNuclear Distances / Bohr    * 
                    *************************************** 

               1 N1            2 N2            3 X1    
    1 N1       0.000000
    2 N2       2.078000        0.000000
    3 X1       1.039000        1.039000        0.000000

                    ******************************************* 
                    *    InterNuclear Distances / Angstrom    * 
                    ******************************************* 

               1 N1            2 N2            3 X1    
    1 N1       0.000000
    2 N2       1.099630        0.000000
    3 X1       0.549815        0.549815        0.000000

                    ************************************** 
                    *    Valence Bond Angles / Degree    * 
                    ************************************** 
                          Atom centers                 Phi
                      2 N2       1 N1       3 X1         0.00
                      1 N1       2 N2       3 X1         0.00
                      1 N1       3 X1       2 N2       180.00
--


            Nuclear Potential Energy             23.58036574 au

--- Stop Module: gateway at Mon Jun 22 16:09:22 2020 /rc=_RC_ALL_IS_WELL_ ---
*** files: xmldump
    saved to directory /home/gayverjr/OpenCAP/molcas_test/full_N2_example/gs
--- Module gateway spent 1 second ---

--- Start Module: seward at Mon Jun 22 16:09:22 2020 ---

()()()()()()()()()()()()()()()()()()()()()()()()()()()()()()()()()()()()()()()()()()()()()()()()()()

                                              &SEWARD

                                   only a single process is used
                       available to each process: 20 GB of memory, 16 threads
                                             pid: 38241
()()()()()()()()()()()()()()()()()()()()()()()()()()()()()()()()()()()()()()()()()()()()()()()()()()

               SEWARD will generate:
                  Multipole Moment integrals up to order  2
                  Kinetic Energy integrals
                  Nuclear Attraction integrals (point charge)
                  One-Electron Hamiltonian integrals
                  Velocity integrals
                  Orbital angular momentum around ( 0.0000  0.0000  0.0000 )
                  Velocity quadrupole around ( 0.0000  0.0000  0.0000 )
                  Two-Electron Repulsion integrals

                   Integrals are discarded if absolute value <: 0.10E-13
                   Integral cutoff threshold is set to       <: 0.10E-15

            Nuclear Potential Energy             23.58036574 au


      Basis set specifications :
      Symmetry species         a  
      Basis functions          119


  Input file to MOLDEN was generated!

--- Stop Module: seward at Mon Jun 22 16:09:26 2020 /rc=_RC_ALL_IS_WELL_ ---
*** files: gs_ms.GssOrb gs_ms.guessorb.h5 gs_ms.guessorb.molden xmldump
    saved to directory /home/gayverjr/OpenCAP/molcas_test/full_N2_example/gs
--- Module seward spent 4 seconds ---

>>> COPY /home/gayverjr/OpenCAP/molcas_test/full_N2_example/orbs/casscf/cas_orbs.RasOrb INPORB

--- Start Module: rasscf at Mon Jun 22 16:09:27 2020 ---

()()()()()()()()()()()()()()()()()()()()()()()()()()()()()()()()()()()()()()()()()()()()()()()()()()

                                              &RASSCF

                                   only a single process is used
                       available to each process: 20 GB of memory, 16 threads
                                             pid: 38322
()()()()()()()()()()()()()()()()()()()()()()()()()()()()()()()()()()()()()()()()()()()()()()()()()()

 ###############################################################################
 ###############################################################################
 ###                                                                         ###
 ###                                                                         ###
 ###    WARNING: Had to guess the spin.                                      ###
 ###                                                                         ###
 ###                                                                         ###
 ###############################################################################
 ###############################################################################
  Warning: no input and no reliable source
  for the spin multiplicity.
  Guess ISPIN=                    1

      Header of the ONEINT file:
      --------------------------
      
      Integrals generated by seward 4.2.0  , Mon Jun 22 16:09:22 2020


      OrdInt status: non-squared


      Cartesian coordinates in Angstrom:
      -----------------------------------------------------
      No.  Label        X            Y            Z        
      -----------------------------------------------------
       1   N1         0.00000000   0.00000000   0.54981512
       2   N2         0.00000000   0.00000000  -0.54981512
       3   X1         0.00000000   0.00000000   0.00000000
      -----------------------------------------------------
      Nuclear repulsion energy =   23.58036574

++    Wave function specifications:
      -----------------------------

      Number of closed shell electrons          10
      Number of electrons in active shells       4
      Max number of holes in RAS1 space          0
      Max nr of electrons in RAS3 space          0
      Number of inactive orbitals                5
      Number of active orbitals                 10
      Number of secondary orbitals             104
      Spin quantum number                      0.0
      State symmetry                             1
--

++    Orbital specifications:
      -----------------------

      Symmetry species                           1
                                                 a
      Frozen orbitals                            0
      Inactive orbitals                          5
      Active orbitals                           10
      RAS1 orbitals                              0
      RAS2 orbitals                             10
      RAS3 orbitals                              0
      Secondary orbitals                       104
      Deleted orbitals                           0
      Number of basis functions                119
--

++    CI expansion specifications:
      ----------------------------

      Number of CSFs                           825
      Number of determinants                  1035
      Number of root(s) required                10
      Root chosen for geometry opt.             10
      CI roots used                              1     2     3     4     5     6     7     8     9    10
      weights                                0.100 0.100 0.100 0.100 0.100 0.100 0.100 0.100 0.100 0.100
      highest root included in the CI           10
      max. size of the explicit Hamiltonian    200
--

++    Optimization specifications:
      ----------------------------

      RASSCF algorithm: Conventional
      Maximum number of macro iterations       200
      Maximum number of SX iterations          100
      Threshold for RASSCF energy            0.100E-07
      Threshold for max MO rotation          0.100E+00
      Threshold for max BLB element          0.100E-03
      Level shift parameter                  0.500E+00
      Make Quasi-Newton update
--

      The MO-coefficients are taken from the file:
      INPORB                                                                                                                          
      Title: RASSCF average (pseudo-natural) orbitals                                      

      Total molecular charge    0.00

      Molecular orbitals exchanged:
        In symmetry  1 :  10  18
        In symmetry  1 :  11  19
        In symmetry  1 :  12  28
        In symmetry  1 :  13  29
        In symmetry  1 :  14  37
        In symmetry  1 :  15  38


      ************************************************************************************************************************
      *                                                                                                                      *
      *                                            Wave function control section                                             *
      *                                                                                                                      *
      ************************************************************************************************************************


                                         RASSCF iterations: Energy and convergence statistics
                                         ----------------------------------------------------

      Iter CI   SX   CI       RASSCF       Energy    max ROT     max BLB   max BLB  Level Ln srch  Step   QN   Walltime
          iter iter root      energy       change     param      element    value   shift minimum  type update hh:mm:ss
 Nr of preliminary CI iterations:   3
        1   1   32    0  -108.58779542    0.00E+00  -0.22E+00*   5  59 1 -0.44E-01*  0.48   0.00    SX    NO    0:00:05
        2   4   19    0  -108.60236712   -0.15E-01* -0.14E+00*   4  58 1 -0.13E-01*  0.50   0.00    SX    NO    0:00:03
        3   3   18    0  -108.60589212   -0.35E-02*  0.90E-01    5  26 1  0.58E-02*  0.50   0.00    SX    NO    0:00:02
        4   3   17    0  -108.60736220   -0.15E-02*  0.63E-01    5  26 1  0.31E-02*  0.50   0.00    SX    NO    0:00:03
        5   3   16    0  -108.60798809   -0.63E-03*  0.64E-01    5  26 1  0.17E-02*  0.50   2.50    LS   YES    0:00:02
        6   4   15    0  -108.60835859   -0.37E-03*  0.42E-01    8  61 1 -0.62E-03*  0.50   1.84    LS   YES    0:00:02
        7   3   15    0  -108.60845381   -0.95E-04*  0.27E-01    5  44 1 -0.13E-02*  0.50   1.31    QN   YES    0:00:02
        8   8   15    0  -108.61005177   -0.16E-02*  0.16E+00*   6  57 1  0.36E-02*  0.45   1.02    QN   YES    0:00:03
        9   4   18    0  -108.60975325    0.30E-03* -0.50E-01    5  59 1 -0.11E-01*  0.45   0.36    LS   YES    0:00:03
       10  10   18    0  -108.61011919   -0.37E-03* -0.42E-01    5  59 1 -0.94E-02*  0.45   1.49    QN   YES    0:00:02
       11   7   19    0  -108.61043619   -0.32E-03* -0.36E-01    5  59 1 -0.45E-02*  0.45   1.65    QN   YES    0:00:02
       12   6   20    0  -108.61063565   -0.20E-03* -0.83E-02   13  84 1 -0.22E-02*  0.45   1.21    QN   YES    0:00:03
       13   5   21    0  -108.61071314   -0.77E-04*  0.16E-01    5  59 1  0.21E-02*  0.45   1.99    QN   YES    0:00:02
       14   5   21    0  -108.61080806   -0.95E-04*  0.14E-01    7  56 1 -0.23E-02*  0.45   1.69    QN   YES    0:00:03
       15   5   21    0  -108.61086610   -0.58E-04*  0.12E-01    7  56 1 -0.21E-02*  0.45   1.69    QN   YES    0:00:03
       16   4   20    0  -108.61089944   -0.33E-04*  0.83E-02    7  56 1 -0.13E-02*  0.45   1.65    QN   YES    0:00:02
       17   4   19    0  -108.61091776   -0.18E-04*  0.79E-02    5  59 1 -0.61E-03*  0.45   1.74    QN   YES    0:00:02
       18   5   18    0  -108.61092977   -0.12E-04* -0.76E-02    5  44 1  0.66E-03*  0.45   1.76    QN   YES    0:00:02
       19   5   17    0  -108.61093858   -0.88E-05* -0.75E-02    5  44 1  0.53E-03*  0.45   1.64    QN   YES    0:00:03
       20   5   17    0  -108.61094430   -0.57E-05* -0.53E-02    5  26 1  0.30E-03*  0.45   1.56    QN   YES    0:00:03
       21   5   16    0  -108.61094768   -0.34E-05* -0.44E-02    4  58 1  0.21E-03*  0.45   1.63    QN   YES    0:00:02
       22   4   15    0  -108.61095034   -0.27E-05* -0.77E-02    7  56 1 -0.31E-03*  0.45   2.05    QN   YES    0:00:03
       23   6   16    0  -108.61095501   -0.47E-05* -0.37E-01    7  56 1 -0.49E-03*  0.45   2.50    QN   YES    0:00:03
       24   7   19    0  -108.61098337   -0.28E-04* -0.14E+00*   5  26 1 -0.13E-02*  0.45   2.50    QN   YES    0:00:02
       25   6   21    0  -108.61121219   -0.23E-03* -0.85E-01    5  26 1 -0.50E-02*  0.45   2.50    LS   YES    0:00:02
       26   6   31    0  -108.61186028   -0.65E-03* -0.68E-01    5  26 1 -0.71E-02*  0.45   2.50    LS   YES    0:00:03
       27   5   55    0  -108.61279075   -0.93E-03*  0.78E-01    5  26 1 -0.87E-02*  0.45   2.50    QN   YES    0:00:03
       28   5   31    0  -108.61176885    0.10E-02* -0.52E-01    4  71 1  0.67E-02*  0.45  -0.50    LS   YES    0:00:02
       29   5   21    0  -108.61238410   -0.62E-03* -0.50E-01    5  26 1 -0.81E-02*  0.45   2.50    LS   YES    0:00:03
       30   5   33    0  -108.61319868   -0.81E-03*  0.90E-01    5  26 1 -0.92E-02*  0.44   2.50    QN   YES    0:00:03
       31   5   21    0  -108.61200758    0.12E-02* -0.59E-01    4  71 1  0.72E-02*  0.45  -0.50    LS   YES    0:00:02
       32   4   36    0  -108.61271407   -0.71E-03* -0.56E-01    5  26 1 -0.86E-02*  0.45   2.50    LS   YES    0:00:02
       33   5   18    0  -108.61361168   -0.90E-03*  0.10E+00*   5  26 1 -0.97E-02*  0.44   2.50    QN   YES    0:00:02
       34   5   32    0  -108.61224807    0.14E-02* -0.65E-01    4  71 1  0.77E-02*  0.45  -0.50    LS   YES    0:00:02
       35   4   22    0  -108.61304585   -0.80E-03* -0.61E-01    5  26 1 -0.91E-02*  0.44   2.50    LS   YES    0:00:02
       36   5   37    0  -108.61402365   -0.98E-03*  0.11E+00*   5  26 1 -0.10E-01*  0.44   2.50    QN   YES    0:00:02
       37   5   62    0  -108.61248285    0.15E-02* -0.70E-01    5  26 1 -0.81E-02*  0.45  -0.50    LS   YES    0:00:03
       38   4   33    0  -108.61337240   -0.89E-03* -0.66E-01    5  26 1 -0.95E-02*  0.44   2.50    LS   YES    0:00:03
       39   5   24    0  -108.61442945   -0.11E-02*  0.12E+00*   5  26 1 -0.11E-01*  0.44   2.50    QN   YES    0:00:02
       40   5   53    0  -108.61270565    0.17E-02* -0.76E-01    5  26 1 -0.86E-02*  0.45  -0.50    LS   YES    0:00:03
       41   4   39    0  -108.61368846   -0.98E-03* -0.70E-01    5  26 1 -0.99E-02*  0.44   2.50    LS   YES    0:00:03
       42   5   32    0  -108.61482472   -0.11E-02*  0.13E+00*   5  26 1 -0.11E-01*  0.44   2.50    QN   YES    0:00:02
       43   5   53    0  -108.61291299    0.19E-02* -0.81E-01    5  26 1 -0.90E-02*  0.44  -0.50    LS   YES    0:00:02
       44   4   42    0  -108.61399041   -0.11E-02* -0.74E-01    5  26 1 -0.10E-01*  0.44   2.50    LS   YES    0:00:02
       45   6   41    0  -108.61520571   -0.12E-02*  0.14E+00*   5  26 1 -0.11E-01*  0.44   2.50    QN   YES    0:00:03
       46   5   33    0  -108.61310284    0.21E-02* -0.85E-01    5  26 1 -0.94E-02*  0.44  -0.50    LS   YES    0:00:02
       47   5   24    0  -108.61427553   -0.12E-02* -0.78E-01    5  26 1 -0.11E-01*  0.44   2.50    LS   YES    0:00:02
       48   6   44    0  -108.61556884   -0.13E-02*  0.15E+00*   5  26 1 -0.11E-01*  0.44   2.50    QN   YES    0:00:03
       49   5   33    0  -108.61327267    0.23E-02* -0.89E-01    5  26 1 -0.97E-02*  0.44  -0.50    LS   YES    0:00:02
       50   5   43    0  -108.61454093   -0.13E-02* -0.81E-01    5  26 1 -0.11E-01*  0.44   2.50    LS   YES    0:00:03
       51   6   19    0  -108.61591182   -0.14E-02*  0.16E+00*   5  26 1 -0.12E-01*  0.44   2.50    QN   YES    0:00:03
       52   5   18    0  -108.61342603    0.25E-02* -0.93E-01    5  26 1 -0.10E-01*  0.44  -0.50    LS   YES    0:00:02
       53   5   45    0  -108.61478733   -0.14E-02* -0.84E-01    5  26 1 -0.11E-01*  0.44   2.50    LS   YES    0:00:03
       54   6   33    0  -108.61623263   -0.14E-02*  0.16E+00*   5  26 1 -0.12E-01*  0.44   2.50    QN   YES    0:00:03
       55   5   35    0  -108.61356753    0.27E-02* -0.96E-01    5  26 1 -0.10E-01*  0.44  -0.50    LS   YES    0:00:03
       56   5   45    0  -108.61501629   -0.14E-02* -0.86E-01    5  26 1 -0.11E-01*  0.44   2.50    LS   YES    0:00:03
       57   5   39    0  -108.61653044   -0.15E-02*  0.17E+00*   5  26 1 -0.12E-01*  0.44   2.50    QN   YES    0:00:02
       58   5   24    0  -108.61370263    0.28E-02* -0.98E-01    5  26 1 -0.11E-01*  0.44  -0.50    LS   YES    0:00:03
       59   5   38    0  -108.61523027   -0.15E-02* -0.87E-01    5  26 1 -0.11E-01*  0.44   2.50    LS   YES    0:00:02
       60   5   39    0  -108.61680518   -0.16E-02*  0.17E+00*   5  26 1 -0.12E-01*  0.44   2.50    QN   YES    0:00:03
       61   5   34    0  -108.61383815    0.30E-02* -0.99E-01    5  26 1 -0.11E-01*  0.44  -0.50    LS   YES    0:00:03
       62   5   26    0  -108.61543277   -0.16E-02* -0.89E-01    5  26 1 -0.12E-01*  0.44   2.50    LS   YES    0:00:02
       63   5   40    0  -108.61705780   -0.16E-02*  0.18E+00*   5  26 1 -0.12E-01*  0.44   2.50    QN   YES    0:00:03
       64   5   43    0  -108.61398421    0.31E-02* -0.10E+00*   5  26 1 -0.11E-01*  0.44  -0.50    LS   YES    0:00:03
       65   5   44    0  -108.61562929   -0.16E-02* -0.89E-01    5  26 1 -0.12E-01*  0.44   2.50    LS   YES    0:00:03
       66   5   46    0  -108.61729017   -0.17E-02*  0.18E+00*   5  26 1 -0.12E-01*  0.44   2.50    QN   YES    0:00:02
       67   5   18    0  -108.61415529    0.31E-02* -0.10E+00*   5  26 1 -0.11E-01*  0.44  -0.50    LS   YES    0:00:03
       68   5   24    0  -108.61582809   -0.17E-02* -0.89E-01    5  26 1 -0.12E-01*  0.44   2.50    LS   YES    0:00:03
       69   5   42    0  -108.61750594   -0.17E-02*  0.17E+00*   5  26 1 -0.12E-01*  0.44   2.50    QN   YES    0:00:03
       70   6   58    0  -108.61436914    0.31E-02* -0.99E-01    5  26 1 -0.11E-01*  0.44  -0.50    LS   YES    0:00:03
       71   6   40    0  -108.61604007   -0.17E-02* -0.88E-01    5  26 1 -0.12E-01*  0.44   2.50    LS   YES    0:00:03
       72   5   18    0  -108.61771091   -0.17E-02*  0.17E+00*   5  26 1 -0.12E-01*  0.44   2.50    QN   YES    0:00:02
       73   6   26    0  -108.61465191    0.31E-02* -0.96E-01    5  26 1 -0.12E-01*  0.44  -0.50    LS   YES    0:00:02
       74   6   40    0  -108.61628045   -0.16E-02* -0.85E-01    5  26 1 -0.12E-01*  0.44   2.50    LS   YES    0:00:03
       75   5   80    0  -108.61791246   -0.16E-02*  0.16E+00*   5  26 1 -0.12E-01*  0.44   2.50    QN   YES    0:00:03
       76   6   43    0  -108.61504725    0.29E-02* -0.91E-01    5  26 1 -0.12E-01*  0.44  -0.50    LS   YES    0:00:03
       77   6   39    0  -108.61657419   -0.15E-02* -0.81E-01    5  26 1 -0.12E-01*  0.44   2.50    LS   YES    0:00:03
       78   5   29    0  -108.61812124   -0.15E-02*  0.14E+00*   5  26 1 -0.12E-01*  0.44   2.50    QN   YES    0:00:03
       79   6   26    0  -108.61562368    0.25E-02* -0.82E-01    5  26 1 -0.12E-01*  0.44  -0.50    LS   YES    0:00:03
       80   6   39    0  -108.61695728   -0.13E-02* -0.74E-01    5  26 1 -0.12E-01*  0.44   2.50    LS   YES    0:00:02
       81   5   19    0  -108.61834822   -0.14E-02*  0.11E+00*   5  26 1 -0.12E-01*  0.44   2.50    QN   YES    0:00:02
       82   6   39    0  -108.61646842    0.19E-02* -0.68E-01    5  26 1 -0.12E-01*  0.44  -0.50    LS   YES    0:00:03
       83   6   39    0  -108.61747193   -0.10E-02* -0.61E-01    5  26 1 -0.12E-01*  0.44   2.50    LS   YES    0:00:02
       84   5   48    0  -108.61859915   -0.11E-02* -0.12E+00*   5  26 1 -0.12E-01*  0.44   2.50    QN   YES    0:00:03
       85   6   38    0  -108.61762361    0.98E-03*  0.75E-01    5  26 1 -0.12E-01*  0.44  -0.50    LS   YES    0:00:02
       86   5   44    0  -108.61812793   -0.50E-03*  0.52E-01    5  26 1 -0.12E-01*  0.44   2.50    SX   YES    0:00:02
       87   5   37    0  -108.62169798   -0.36E-02* -0.11E+00*   5  26 1 -0.85E-02*  0.44   2.50    QN   YES    0:00:02
       88   4   35    0  -108.62722696   -0.55E-02* -0.61E-01    5  26 1 -0.42E-02*  0.43   1.94    LS   YES    0:00:03
       89   3   31    0  -108.62891411   -0.17E-02*  0.72E-01    6  57 1 -0.37E-02*  0.43   1.80    QN   YES    0:00:02
       90   4   31    0  -108.63011108   -0.12E-02*  0.46E-01    7  56 1  0.33E-02*  0.43   1.89    LS   YES    0:00:02
       91   4   30    0  -108.63043625   -0.33E-03* -0.70E-01    7  56 1  0.32E-02*  0.43   1.40    QN   YES    0:00:02
       92   4   30    0  -108.63072039   -0.28E-03* -0.94E-01    5  26 1  0.26E-02*  0.43   2.18    QN   YES    0:00:02
       93   5   30    0  -108.63098675   -0.27E-03*  0.12E+00*   5  26 1  0.16E-02*  0.43   1.88    QN   YES    0:00:03
       94   6   30    0  -108.63128225   -0.30E-03*  0.11E+00*   7  88 1 -0.25E-02*  0.43   1.29    QN   YES    0:00:03
       95   5   30    0  -108.63148693   -0.20E-03*  0.91E-01    7  56 1 -0.36E-02*  0.44   1.22    QN   YES    0:00:02
       96   5   30    0  -108.63179595   -0.31E-03*  0.21E+00*   7  56 1 -0.40E-02*  0.44   2.50    QN   YES    0:00:03
       97   6   30    0  -108.63251779   -0.72E-03*  0.13E+00*   5  26 1 -0.41E-02*  0.44   1.34    QN   YES    0:00:03
       98   5   30    0  -108.63317259   -0.65E-03*  0.10E+00*   5  26 1 -0.53E-02*  0.44   1.94    QN   YES    0:00:03
       99   5   30    0  -108.63387998   -0.71E-03* -0.42E-01    5  26 1 -0.48E-02*  0.44   2.02    SX   YES    0:00:02
      100   4   29    0  -108.63478707   -0.91E-03*  0.96E-01    5  26 1 -0.30E-02*  0.44   2.50    QN   YES    0:00:03
      101   5   27    0  -108.63601072   -0.12E-02* -0.80E-01    7  88 1  0.94E-03*  0.43   1.90    QN   YES    0:00:03
      102   4   27    0  -108.63672783   -0.72E-03*  0.57E-01    4  71 1 -0.18E-02*  0.43   1.59    QN   YES    0:00:02
      103   5   27    0  -108.63709148   -0.36E-03*  0.43E-01    5  26 1  0.20E-02*  0.43   1.63    QN   YES    0:00:03
      104   5   26    0  -108.63749635   -0.40E-03*  0.56E-01    5  26 1  0.19E-02*  0.43   2.14    QN   YES    0:00:03
      105   6   26    0  -108.63803671   -0.54E-03*  0.61E-01   11  37 1  0.14E-02*  0.43   2.17    QN   YES    0:00:03
      106   6   25    0  -108.63875289   -0.72E-03*  0.65E-01   11  56 1  0.20E-02*  0.43   1.69    QN   YES    0:00:02
      107   6   32    0  -108.63944438   -0.69E-03*  0.54E-01   13  85 1 -0.27E-02*  0.44   1.44    QN   YES    0:00:02
      108   7   25    0  -108.64013505   -0.69E-03*  0.57E-01   10  88 1  0.34E-02*  0.44   1.68    QN   YES    0:00:03
      109   6   25    0  -108.64090588   -0.77E-03* -0.58E-01    5  26 1 -0.43E-02*  0.44   1.64    QN   YES    0:00:02
      110   5   25    0  -108.64134717   -0.44E-03*  0.63E-01    5  26 1 -0.36E-02*  0.43   1.06    QN   YES    0:00:03
      111   6   26    0  -108.64145211   -0.10E-03*  0.26E-01    5  26 1 -0.27E-02*  0.43   0.65    QN   YES    0:00:02
      112   5   26    0  -108.64141388    0.38E-04*  0.16E-01   13  84 1 -0.23E-02*  0.43   0.31    SX   YES    0:00:02
      113   6   26    0  -108.64213754   -0.72E-03*  0.62E-01   10  88 1  0.17E-02*  0.43   2.50    QN   YES    0:00:03
      114   6   26    0  -108.64388750   -0.17E-02*  0.27E-01   11  89 1 -0.16E-02*  0.43   1.56    LS   YES    0:00:02
      115   4   25    0  -108.64416648   -0.28E-03*  0.51E-01   11  89 1 -0.25E-02*  0.43   1.32    QN   YES    0:00:03
      116   6   25    0  -108.64424136   -0.75E-04*  0.22E-01    5  26 1  0.24E-02*  0.43   0.64    QN   YES    0:00:02
      117   7   25    0  -108.64425363   -0.12E-04*  0.15E-01   10 108 1 -0.22E-02*  0.43   0.57    SX   YES    0:00:02
      118   7   25    0  -108.64472072   -0.47E-03*  0.46E-01    5  26 1  0.12E-02*  0.43   2.37    QN   YES    0:00:02
      119   7   24    0  -108.64524889   -0.53E-03* -0.47E-01   11 108 1  0.11E-02*  0.43   1.64    QN   YES    0:00:02
      120   4   25    0  -108.64550879   -0.26E-03*  0.38E-01   10 108 1  0.18E-02*  0.43   1.36    QN   YES    0:00:02
      121   7   25    0  -108.64565439   -0.15E-03*  0.23E-01   11 108 1  0.10E-02*  0.43   1.41    QN   YES    0:00:02
      122   4   24    0  -108.64574428   -0.90E-04*  0.18E-01    5  26 1 -0.57E-03*  0.43   1.82    QN   YES    0:00:03
      123   4   22    0  -108.64580305   -0.59E-04*  0.10E-01    7  56 1 -0.40E-03*  0.43   1.49    QN   YES    0:00:02
      124   4   22    0  -108.64582810   -0.25E-04* -0.96E-02   11 108 1 -0.37E-03*  0.43   1.63    QN   YES    0:00:03
      125   6   21    0  -108.64584369   -0.16E-04* -0.47E-02   11 108 1 -0.29E-03*  0.43   1.59    QN   YES    0:00:03
      126   4   21    0  -108.64585247   -0.88E-05* -0.44E-02    4  71 1 -0.20E-03*  0.43   1.54    QN   YES    0:00:02
      127   5   20    0  -108.64585769   -0.52E-05* -0.43E-02   13 108 1 -0.14E-03*  0.43   1.44    QN   YES    0:00:02
      128   4   21    0  -108.64586184   -0.42E-05* -0.52E-02   10  16 1  0.13E-03*  0.43   1.48    QN   YES    0:00:03
      129   5   21    0  -108.64586690   -0.51E-05* -0.16E-01   10  16 1  0.18E-03*  0.43   2.50    QN   YES    0:00:02
      130   4   23    0  -108.64588086   -0.14E-04* -0.74E-01   10  16 1  0.35E-03*  0.43   2.50    QN   YES    0:00:03
      131   6   25    0  -108.64595005   -0.69E-04* -0.15E+00*  10  16 1  0.12E-02*  0.43   1.84    QN   YES    0:00:02
      132   6   26    0  -108.64592380    0.26E-04*  0.19E-01    7  56 1 -0.30E-02*  0.43   0.52    SX   YES    0:00:03
      133   5   26    0  -108.64670417   -0.78E-03*  0.22E+00*  10  16 1  0.27E-02*  0.43   2.50    QN   YES    0:00:02
      134   5   29    0  -108.65010998   -0.34E-02*  0.25E+00*  10  16 1  0.34E-02*  0.43   2.06    QN   YES    0:00:03
      135   4   30    0  -108.65243400   -0.23E-02*  0.60E-01    7  56 1  0.59E-02*  0.43   1.11    QN   YES    0:00:02
      136   4   27    0  -108.65392747   -0.15E-02*  0.53E-01    7  56 1  0.67E-02*  0.43   2.50    LS   YES    0:00:02
      137   4   27    0  -108.65462331   -0.70E-03*  0.58E-01    7  56 1  0.73E-02*  0.43   1.86    QN   YES    0:00:03
      138   5   26    0  -108.65562329   -0.10E-02* -0.73E-01    7  56 1  0.63E-02*  0.43   2.50    QN   YES    0:00:03
      139   5   28    0  -108.65704825   -0.14E-02*  0.67E-01    7  56 1  0.36E-02*  0.42   2.22    QN   YES    0:00:02
      140   5   29    0  -108.65829276   -0.12E-02* -0.64E-01   11  88 1  0.19E-02*  0.42   1.82    QN   YES    0:00:03
      141   5   29    0  -108.65911003   -0.82E-03*  0.53E-01    6  57 1  0.16E-02*  0.42   1.73    QN   YES    0:00:02
      142   5   26    0  -108.65966822   -0.56E-03*  0.31E-01    7  56 1 -0.24E-02*  0.42   1.60    QN   YES    0:00:02
      143   4   26    0  -108.66000962   -0.34E-03* -0.25E-01    7  56 1 -0.25E-02*  0.42   1.41    QN   YES    0:00:03
      144   5   26    0  -108.66018303   -0.17E-03*  0.17E-01    7  56 1 -0.15E-02*  0.42   1.53    QN   YES    0:00:03
      145   4   24    0  -108.66027739   -0.94E-04*  0.16E-01    7  56 1 -0.61E-03*  0.42   1.64    QN   YES    0:00:03
      146   5   23    0  -108.66033623   -0.59E-04*  0.15E-01    8 108 1 -0.42E-03*  0.42   1.67    QN   YES    0:00:03
      147   5   24    0  -108.66037095   -0.35E-04* -0.14E-01    4  71 1 -0.30E-03*  0.42   1.64    QN   YES    0:00:02
      148   5   23    0  -108.66039010   -0.19E-04* -0.11E-01    4  71 1 -0.16E-03*  0.42   1.68    QN   YES    0:00:02
      149   6   23    0  -108.66040186   -0.12E-04* -0.73E-02    8 108 1  0.15E-03*  0.42   1.69    QN   YES    0:00:02
      150   7   21    0  -108.66040913   -0.73E-05*  0.46E-02    7  56 1 -0.18E-03*  0.42   1.62    QN   YES    0:00:02
      151   5   20    0  -108.66041309   -0.40E-05* -0.44E-02    6  57 1  0.19E-03*  0.42   1.63    QN   YES    0:00:02
      152   6   20    0  -108.66041543   -0.23E-05*  0.37E-02    6  57 1  0.11E-03*  0.42   1.71    QN   YES    0:00:03
      153   6   20    0  -108.66041711   -0.17E-05*  0.30E-02    8  88 1  0.62E-04   0.42   1.76    QN   YES    0:00:02
      154   6   20    0  -108.66041842   -0.13E-05*  0.30E-02    7  56 1  0.73E-04   0.42   1.76    QN   YES    0:00:03
      155   7   19    0  -108.66041946   -0.10E-05*  0.34E-02    6  57 1 -0.10E-03*  0.42   1.81    QN   YES    0:00:03
      156   7   20    0  -108.66042042   -0.96E-06* -0.47E-02    6  57 1 -0.94E-04   0.42   1.90    QN   YES    0:00:02
      157   6   20    0  -108.66042148   -0.11E-05*  0.67E-02   15 108 1 -0.64E-04   0.42   1.93    QN   YES    0:00:02
      158   6   20    0  -108.66042274   -0.13E-05* -0.89E-02   12 108 1 -0.65E-04   0.42   1.91    QN   YES    0:00:02
      159   6   20    0  -108.66042422   -0.15E-05* -0.11E-01    5  26 1 -0.82E-04   0.42   1.90    QN   YES    0:00:02
      160   7   20    0  -108.66042590   -0.17E-05* -0.12E-01    5  26 1 -0.79E-04   0.42   1.89    QN   YES    0:00:03
      161   7   20    0  -108.66042780   -0.19E-05* -0.13E-01   10  88 1 -0.65E-04   0.42   1.89    QN   YES    0:00:03
      162   7   21    0  -108.66042992   -0.21E-05*  0.13E-01    8  88 1  0.80E-04   0.42   1.85    QN   YES    0:00:02
      163   6   20    0  -108.66043216   -0.22E-05*  0.11E-01    6  57 1 -0.75E-04   0.42   1.81    QN   YES    0:00:02
      164   6   20    0  -108.66043434   -0.22E-05*  0.87E-02    6  57 1 -0.92E-04   0.42   1.74    QN   YES    0:00:02
      165   6   20    0  -108.66043626   -0.19E-05* -0.77E-02    6  57 1 -0.73E-04   0.42   1.71    QN   YES    0:00:02
      166   6   20    0  -108.66043792   -0.17E-05* -0.77E-02   10  88 1  0.67E-04   0.42   1.72    QN   YES    0:00:02
      167   6   20    0  -108.66043945   -0.15E-05*  0.82E-02    8  88 1 -0.58E-04   0.42   1.76    QN   YES    0:00:02
      168   6   20    0  -108.66044097   -0.15E-05*  0.90E-02    5  26 1 -0.70E-04   0.42   1.80    QN   YES    0:00:03
      169   6   21    0  -108.66044252   -0.16E-05* -0.93E-02    6  57 1  0.80E-04   0.42   1.84    QN   YES    0:00:02
      170   6   21    0  -108.66044412   -0.16E-05* -0.92E-02    7  56 1 -0.73E-04   0.42   1.86    QN   YES    0:00:03
      171   6   20    0  -108.66044570   -0.16E-05*  0.82E-02    7  56 1 -0.60E-04   0.42   1.83    QN   YES    0:00:03
      172   7   20    0  -108.66044718   -0.15E-05*  0.72E-02    5  58 1 -0.57E-04   0.42   1.77    QN   YES    0:00:02
      173   6   20    0  -108.66044837   -0.12E-05*  0.53E-02    5  58 1 -0.47E-04   0.42   1.67    QN   YES    0:00:03
      174   6   20    0  -108.66044919   -0.81E-06* -0.31E-02   14 108 1 -0.46E-04   0.42   1.59    QN   YES    0:00:03
      175   6   19    0  -108.66044964   -0.46E-06*  0.15E-02   14 108 1 -0.34E-04   0.42   1.53    QN   YES    0:00:02
      176   5   18    0  -108.66044988   -0.24E-06* -0.21E-02    7  56 1  0.38E-04   0.42   1.59    QN   YES    0:00:03
      177   5   18    0  -108.66045003   -0.15E-06*  0.14E-02    7  56 1  0.35E-04   0.42   1.59    QN   YES    0:00:02
      178   5   18    0  -108.66045016   -0.12E-06* -0.20E-02    7  56 1  0.30E-04   0.42   1.59    QN   YES    0:00:02
      179   5   18    0  -108.66045027   -0.11E-06*  0.15E-02   14 108 1  0.17E-04   0.42   1.61    QN   YES    0:00:03
      180   5   17    0  -108.66045037   -0.97E-07* -0.11E-02    5  58 1 -0.21E-04   0.42   1.65    QN   YES    0:00:02
      181   4   16    0  -108.66045044   -0.71E-07* -0.10E-02    7  56 1 -0.12E-04   0.42   1.68    QN   YES    0:00:03
      182   5   16    0  -108.66045049   -0.53E-07*  0.11E-02    7  56 1 -0.15E-04   0.42   1.76    QN   YES    0:00:02
      183   3   16    0  -108.66045054   -0.46E-07* -0.12E-02    7  56 1 -0.14E-04   0.42   1.80    QN   YES    0:00:03
      184   5   16    0  -108.66045058   -0.44E-07* -0.14E-02    6  57 1  0.12E-04   0.42   1.87    QN   YES    0:00:02
      185   4   16    0  -108.66045063   -0.45E-07*  0.15E-02    5  58 1  0.87E-05   0.42   1.82    QN   YES    0:00:03
      186   4   16    0  -108.66045067   -0.42E-07*  0.15E-02    7  66 1 -0.92E-05   0.42   1.84    QN   YES    0:00:03
      187   5   16    0  -108.66045071   -0.39E-07*  0.13E-02   14 108 1  0.97E-05   0.42   1.76    QN   YES    0:00:02
      188   3   16    0  -108.66045074   -0.31E-07* -0.87E-03    5  58 1 -0.88E-05   0.42   1.70    QN   YES    0:00:02
      189   4   15    0  -108.66045076   -0.21E-07* -0.45E-03    7  56 1 -0.88E-05   0.42   1.61    QN   YES    0:00:02
      190   3   14    0  -108.66045077   -0.12E-07*  0.19E-03    7  56 1 -0.80E-05   0.42   1.54    QN   YES    0:00:02
      191   5   13    0  -108.66045078   -0.56E-08  -0.27E-03    7  56 1 -0.47E-05   0.42   1.43    QN   YES    0:00:03
      Convergence after191 iterations
      192   3   13    0  -108.66045078   -0.22E-08  -0.27E-03    5  10 1 -0.20E-05   0.42   1.43    QN   YES    0:00:03

      ************************************************************************************************************************
                                                      Wave function printout:
                       occupation of active orbitals, and spin coupling of open shells (u,d: Spin up or down)
      ************************************************************************************************************************

      Note: transformation to natural orbitals
      has been made, which may change the order of the CSFs.

      printout of CI-coefficients larger than  0.05 for root  1
      energy=    -109.067087
      conf/sym  1111111111     Coeff  Weight
             1  2200000000  -0.96301 0.92739
             4  2020000000   0.12938 0.01674
            10  udud000000  -0.10920 0.01192
            12  uudd000000  -0.09189 0.00844
            17  0202000000   0.12246 0.01500
            59  u2000000d0   0.05842 0.00341

      printout of CI-coefficients larger than  0.05 for root  2
      energy=    -108.700408
      conf/sym  1111111111     Coeff  Weight
             3  u2d0000000   0.52104 0.27148
             7  2u0d000000   0.82778 0.68522
            14  0u2d000000   0.06359 0.00404
            18  u0d2000000   0.08361 0.00699
            51  2u000d0000  -0.08614 0.00742
            55  2u0000000d   0.05230 0.00274
            58  u200000d00   0.06761 0.00457

      printout of CI-coefficients larger than  0.05 for root  3
      energy=    -108.675102
      conf/sym  1111111111     Coeff  Weight
             2  2ud0000000   0.66982 0.44865
             8  u20d000000   0.71229 0.50736
            19  0ud2000000   0.06088 0.00371
            53  2u00000d00   0.09858 0.00972
            56  u2000d0000  -0.06522 0.00425
            60  u20000000d   0.05910 0.00349
           104  020u0000d0  -0.06283 0.00395

      printout of CI-coefficients larger than  0.05 for root  4
      energy=    -108.673348
      conf/sym  1111111111     Coeff  Weight
             3  u2d0000000   0.82658 0.68324
             7  2u0d000000  -0.52200 0.27249
            14  0u2d000000   0.07117 0.00507
            51  2u000d0000   0.05431 0.00295
            57  u20000d000  -0.05799 0.00336
            58  u200000d00   0.11095 0.01231

      printout of CI-coefficients larger than  0.05 for root  5
      energy=    -108.603086
      conf/sym  1111111111     Coeff  Weight
            21  2u00d00000  -0.97562 0.95184
            36  u0udd00000   0.12296 0.01512
            39  0u02d00000  -0.13951 0.01946
           225  0u0ud0000d  -0.05098 0.00260

      printout of CI-coefficients larger than  0.05 for root  6
      energy=    -108.600655
      conf/sym  1111111111     Coeff  Weight
            22  u200d00000  -0.97640 0.95335
            27  u020d00000   0.13881 0.01927
            33  0udud00000  -0.12811 0.01641

      printout of CI-coefficients larger than  0.05 for root  7
      energy=    -108.575277
      conf/sym  1111111111     Coeff  Weight
             7  2u0d000000   0.09578 0.00917
            51  2u000d0000   0.91681 0.84054
            58  u200000d00   0.31290 0.09791
           126  u0ud0d0000  -0.11653 0.01358
           141  0u020d0000   0.13293 0.01767

      printout of CI-coefficients larger than  0.05 for root  8
      energy=    -108.574589
      conf/sym  1111111111     Coeff  Weight
             2  2ud0000000   0.08474 0.00718
             8  u20d000000   0.07880 0.00621
            53  2u00000d00  -0.73591 0.54156
            56  u2000d0000   0.62829 0.39474
            81  u0200d0000  -0.09137 0.00835
           111  0udu0d0000   0.08189 0.00671
           128  u0ud000d00   0.09259 0.00857
           143  0u02000d00  -0.10778 0.01162

      printout of CI-coefficients larger than  0.05 for root  9
      energy=    -108.571304
      conf/sym  1111111111     Coeff  Weight
             3  u2d0000000   0.12110 0.01467
            51  2u000d0000   0.31408 0.09865
            58  u200000d00  -0.91487 0.83698
            83  u020000d00   0.13228 0.01750
           113  0udu000d00  -0.12001 0.01440

      printout of CI-coefficients larger than  0.05 for root 10
      energy=    -108.563652
      conf/sym  1111111111     Coeff  Weight
             1  2200000000   0.05193 0.00270
             2  2ud0000000  -0.06042 0.00365
            53  2u00000d00   0.62543 0.39116
            56  u2000d0000   0.73922 0.54645
            81  u0200d0000  -0.10373 0.01076
           111  0udu0d0000   0.09490 0.00901
           128  u0ud000d00  -0.07686 0.00591
           143  0u02000d00   0.08838 0.00781

      Natural orbitals and occupation numbers for root  1
      sym 1:   1.934746   1.932805   0.065448   0.062096   0.000007   0.000008   0.001616   0.000080   0.002922   0.000273


      Natural orbitals and occupation numbers for root  2
      sym 1:   1.692146   1.266973   0.298237   0.724819   0.000005   0.000048   0.003682   0.000580   0.007042   0.006468


      Natural orbitals and occupation numbers for root  3
      sym 1:   1.453437   1.515349   0.477780   0.533893   0.000003   0.000051   0.005817   0.000925   0.006264   0.006481


      Natural orbitals and occupation numbers for root  4
      sym 1:   1.269905   1.700252   0.721493   0.291205   0.000003   0.000047   0.007374   0.001163   0.004669   0.003888


      Natural orbitals and occupation numbers for root  5
      sym 1:   1.929429   0.979112   0.021333   0.068143   1.000000   0.000041   0.000246   0.000007   0.001590   0.000099


      Natural orbitals and occupation numbers for root  6
      sym 1:   0.978828   1.932499   0.066139   0.021563   1.000000   0.000001   0.000587   0.000052   0.000314   0.000016


      Natural orbitals and occupation numbers for root  7
      sym 1:   1.828134   1.078227   0.027153   0.066639   0.000078   0.893228   0.000265   0.104569   0.001299   0.000407


      Natural orbitals and occupation numbers for root  8
      sym 1:   1.527254   1.380034   0.043008   0.050552   0.000099   0.420905   0.000441   0.576531   0.000934   0.000243


      Natural orbitals and occupation numbers for root  9
      sym 1:   1.077751   1.831257   0.064476   0.027343   0.000021   0.104725   0.000653   0.893298   0.000403   0.000074


      Natural orbitals and occupation numbers for root 10
      sym 1:   1.389943   1.539031   0.051748   0.044438   0.000074   0.564459   0.000616   0.408442   0.000984   0.000265


      ************************************************************************************************************************
      *                                                                                                                      *
      *                                                    Final results                                                     *
      *                                                                                                                      *
      ************************************************************************************************************************


++    Wave function specifications:
      -----------------------------

      Number of closed shell electrons          10
      Number of electrons in active shells       4
      Max number of holes in RAS1 space          0
      Max nr of electrons in RAS3 space          0
      Number of inactive orbitals                5
      Number of active orbitals                 10
      Number of secondary orbitals             104
      Spin quantum number                      0.0
      State symmetry                             1
--

++    Orbital specifications:
      -----------------------

      Symmetry species                           1
                                                 a
      Frozen orbitals                            0
      Inactive orbitals                          5
      Active orbitals                           10
      RAS1 orbitals                              0
      RAS2 orbitals                             10
      RAS3 orbitals                              0
      Secondary orbitals                       104
      Deleted orbitals                           0
      Number of basis functions                119
--

++    CI expansion specifications:
      ----------------------------

      Number of CSFs                           825
      Number of determinants                  1035
      Number of root(s) required                10
      CI roots used                              1     2     3     4     5     6     7     8     9    10
      weights                                0.100 0.100 0.100 0.100 0.100 0.100 0.100 0.100 0.100 0.100
      highest root included in the CI           10
      Root passed to geometry opt.              10
--

++    Final optimization conditions:
      ------------------------------

      Average CI energy                            -108.66045078
      RASSCF energy for state 10                   -108.56365249
      Super-CI energy                                -0.00000000
      RASSCF energy change                            0.00000000
      Max change in MO coefficients               0.316E-02
      Max non-diagonal density matrix element    -0.270E-03
      Maximum BLB matrix element                 -0.203E-05
      (orbital pair   5,  10 in symmetry   1)
      Norm of electronic gradient            0.975E-01
--


      Final state energy(ies):
      ------------------------

::    RASSCF root number  1 Total energy:   -109.06708727
::    RASSCF root number  2 Total energy:   -108.70040752
::    RASSCF root number  3 Total energy:   -108.67510191
::    RASSCF root number  4 Total energy:   -108.67334764
::    RASSCF root number  5 Total energy:   -108.60308608
::    RASSCF root number  6 Total energy:   -108.60065506
::    RASSCF root number  7 Total energy:   -108.57527730
::    RASSCF root number  8 Total energy:   -108.57458898
::    RASSCF root number  9 Total energy:   -108.57130355
::    RASSCF root number 10 Total energy:   -108.56365249

++    Molecular orbitals:
      -------------------

      Pseudonatural active orbitals and approximate occupation numbers




      Molecular orbitals for symmetry species 1: a  


      Orbital                 1         2         3         4         5         6         7         8         9        10
      Energy           -15.8583  -15.8527   -1.6493   -0.9220   -0.7771    0.0000    0.0000    0.0000    0.0000    0.0000
      Occ. No.           2.0000    2.0000    2.0000    2.0000    2.0000    1.5045    1.5135    0.1808    0.1855    0.2000

     1 N1     1s         0.9504   -0.3089   -0.0165   -0.0068   -0.0066   -0.0000    0.0000    0.0000    0.0000    0.0047
     2 N1     1s         0.0004    0.0028    0.6369   -0.6884   -0.2757   -0.0000   -0.0000   -0.0000    0.0000    0.1503
     3 N1     1s         0.0015   -0.0002   -0.0028   -0.0022   -0.0007   -0.0000   -0.0000   -0.0000    0.0000    0.0024
     4 N1     1s         0.0075   -0.0130   -0.1433   -0.2381   -0.1401   -0.0000    0.0000    0.0000    0.0000    0.1192
     5 N1     1s         0.0034   -0.0029    0.0089   -0.0352   -0.0769    0.0000    0.0000    0.0000   -0.0000    0.0327
     6 N1     2px       -0.0000    0.0000    0.0000   -0.0000   -0.0000    0.4146    0.5199   -0.6579   -0.4942    0.0000
     7 N1     2px        0.0000   -0.0000   -0.0000    0.0000    0.0000   -0.0080   -0.0074   -0.0014    0.0052    0.0000
     8 N1     2px        0.0000   -0.0000    0.0000   -0.0000   -0.0000   -0.0477   -0.0623   -0.0917   -0.0871    0.0000
     9 N1     2px       -0.0000   -0.0000    0.0000   -0.0000   -0.0000   -0.0079   -0.0112   -0.2553   -0.2167   -0.0010
    10 N1     2py       -0.0000    0.0000    0.0000   -0.0000    0.0000   -0.5266    0.4094   -0.5179    0.6278   -0.0000
    11 N1     2py        0.0000   -0.0000    0.0000   -0.0000   -0.0000    0.0101   -0.0058   -0.0011   -0.0066   -0.0000
    12 N1     2py        0.0000   -0.0000   -0.0000    0.0000   -0.0000    0.0606   -0.0491   -0.0721    0.1108    0.0000
    13 N1     2py        0.0000   -0.0000    0.0000   -0.0000   -0.0000    0.0100   -0.0088   -0.2000    0.2771    0.0002
    14 N1     2pz       -0.0083    0.0011   -0.3635   -0.3293   -0.7032   -0.0000    0.0000   -0.0000    0.0000    0.0988
    15 N1     2pz        0.0046   -0.0008    0.0375    0.0232    0.0479    0.0000   -0.0000   -0.0000   -0.0000   -0.0021
    16 N1     2pz        0.0016    0.0062    0.1345    0.1472    0.1107    0.0000   -0.0000   -0.0000   -0.0000    0.0019
    17 N1     2pz        0.0056    0.0039    0.0617    0.0073   -0.1252   -0.0000   -0.0000   -0.0001   -0.0000    0.0406
    18 N1     3d2-      -0.0000    0.0000    0.0000    0.0000    0.0000   -0.0000   -0.0000    0.0000   -0.0000    0.0000
    19 N1     3d2-      -0.0000    0.0000    0.0000    0.0000    0.0000   -0.0000    0.0000    0.0000    0.0000    0.0000
    20 N1     3d2-      -0.0000   -0.0000   -0.0001    0.0001    0.0001   -0.0000    0.0000    0.0000   -0.0000    0.0004
    21 N1     3d1-      -0.0000   -0.0000   -0.0000    0.0000   -0.0000    0.0174   -0.0137   -0.0033    0.0046    0.0000
    22 N1     3d1-      -0.0000    0.0000   -0.0000   -0.0000   -0.0000    0.0315   -0.0247   -0.0041    0.0066   -0.0000
    23 N1     3d1-      -0.0000    0.0000    0.0000   -0.0000   -0.0000    0.0041   -0.0027    0.0087   -0.0139   -0.0000
    24 N1     3d0        0.0009   -0.0003    0.0225    0.0051    0.0207    0.0000   -0.0000   -0.0000    0.0000    0.0014
    25 N1     3d0       -0.0009   -0.0009    0.0210    0.0070    0.0209    0.0000   -0.0000    0.0000    0.0000    0.0105
    26 N1     3d0        0.0002   -0.0010   -0.0234   -0.0162   -0.0098   -0.0000    0.0000    0.0000   -0.0000    0.0209
    27 N1     3d1+       0.0000   -0.0000    0.0000    0.0000   -0.0000   -0.0137   -0.0173   -0.0041   -0.0037    0.0000
    28 N1     3d1+      -0.0000    0.0000    0.0000   -0.0000   -0.0000   -0.0248   -0.0313   -0.0053   -0.0052   -0.0000
    29 N1     3d1+      -0.0000    0.0000   -0.0000   -0.0000   -0.0000   -0.0032   -0.0034    0.0111    0.0109   -0.0000
    30 N1     3d2+      -0.0000    0.0000    0.0000    0.0000    0.0000   -0.0000    0.0000   -0.0000    0.0000    0.0000
    31 N1     3d2+      -0.0000    0.0000    0.0000    0.0000    0.0000   -0.0000    0.0000    0.0000    0.0000    0.0000
    32 N1     3d2+      -0.0000   -0.0000   -0.0000    0.0000    0.0000    0.0000    0.0000   -0.0000    0.0000    0.0001
    33 N1     4f3-       0.0000   -0.0000   -0.0000    0.0000    0.0000   -0.0000   -0.0000    0.0001    0.0000    0.0000
    34 N1     4f3-       0.0000    0.0000    0.0000   -0.0000   -0.0000   -0.0000    0.0000   -0.0005   -0.0001   -0.0000
    35 N1     4f2-       0.0000   -0.0000   -0.0000   -0.0000   -0.0000    0.0000    0.0000   -0.0000   -0.0000    0.0000
    36 N1     4f2-      -0.0000    0.0000   -0.0000   -0.0000   -0.0000   -0.0000    0.0000   -0.0000    0.0000   -0.0000
    37 N1     4f1-       0.0000    0.0000    0.0000   -0.0000    0.0000   -0.0066    0.0052    0.0027   -0.0036   -0.0000
    38 N1     4f1-       0.0000   -0.0000    0.0000    0.0000    0.0000   -0.0010    0.0007    0.0008   -0.0004    0.0000
    39 N1     4f0       -0.0000    0.0005   -0.0086    0.0005   -0.0061   -0.0000    0.0000   -0.0000   -0.0000   -0.0003
    40 N1     4f0        0.0005    0.0002    0.0033   -0.0015    0.0026   -0.0000   -0.0000   -0.0000    0.0000   -0.0046
    41 N1     4f1+       0.0000   -0.0000   -0.0000   -0.0000    0.0000    0.0052    0.0066    0.0035    0.0028   -0.0000
    42 N1     4f1+       0.0000   -0.0000   -0.0000   -0.0000   -0.0000    0.0008    0.0009    0.0010    0.0003   -0.0000
    43 N1     4f2+       0.0000   -0.0000   -0.0000   -0.0000   -0.0000    0.0000   -0.0000    0.0000   -0.0000    0.0000
    44 N1     4f2+      -0.0000    0.0000   -0.0000   -0.0000   -0.0000    0.0000    0.0000   -0.0000   -0.0000   -0.0000
    45 N1     4f3+      -0.0000    0.0000    0.0000    0.0000   -0.0000   -0.0000    0.0000   -0.0001    0.0000   -0.0000
    46 N1     4f3+       0.0000   -0.0000    0.0000   -0.0000   -0.0000   -0.0000   -0.0000    0.0002   -0.0003    0.0000
    47 N2     1s         0.3099    0.9501   -0.0166    0.0065   -0.0067   -0.0000    0.0000    0.0000   -0.0000    0.0047
    48 N2     1s         0.0025   -0.0013    0.6347    0.6831   -0.2890   -0.0000    0.0000    0.0000   -0.0000    0.1507
    49 N2     1s         0.0007    0.0014   -0.0029    0.0020   -0.0008   -0.0000    0.0000    0.0000   -0.0000    0.0023
    50 N2     1s        -0.0060    0.0137   -0.1436    0.2362   -0.1450   -0.0000    0.0000   -0.0000    0.0000    0.1201
    51 N2     1s        -0.0004    0.0044    0.0090    0.0341   -0.0787    0.0000   -0.0000   -0.0001   -0.0001    0.0237
    52 N2     2px       -0.0000   -0.0000    0.0000   -0.0000    0.0000    0.4145    0.5324    0.5915    0.4775    0.0000
    53 N2     2px        0.0000    0.0000   -0.0000   -0.0000    0.0000   -0.0086   -0.0102   -0.0103   -0.0066   -0.0000
    54 N2     2px       -0.0000    0.0000   -0.0000    0.0000    0.0000   -0.0478   -0.0615    0.1316    0.0908    0.0000
    55 N2     2px        0.0000    0.0000   -0.0000    0.0000    0.0000   -0.0089   -0.0130    0.3397    0.2364    0.0010
    56 N2     2py        0.0000   -0.0000    0.0000   -0.0000    0.0000   -0.5264    0.4193    0.4656   -0.6067   -0.0000
    57 N2     2py        0.0000    0.0000   -0.0000    0.0000   -0.0000    0.0109   -0.0081   -0.0081    0.0083   -0.0000
    58 N2     2py       -0.0000    0.0000   -0.0000   -0.0000   -0.0000    0.0607   -0.0484    0.1036   -0.1155   -0.0000
    59 N2     2py       -0.0000    0.0000   -0.0000    0.0000    0.0000    0.0113   -0.0103    0.2666   -0.3020   -0.0002
    60 N2     2pz        0.0040    0.0074    0.3629   -0.3153    0.7071    0.0000   -0.0000   -0.0000    0.0000   -0.0988
    61 N2     2pz       -0.0021   -0.0042   -0.0374    0.0223   -0.0483   -0.0000    0.0000   -0.0000    0.0000    0.0019
    62 N2     2pz       -0.0060    0.0024   -0.1347    0.1445   -0.1127   -0.0000    0.0000   -0.0000   -0.0000   -0.0025
    63 N2     2pz       -0.0065   -0.0023   -0.0618    0.0101    0.1251    0.0000    0.0000    0.0001    0.0000   -0.0430
    64 N2     3d2-       0.0000    0.0000    0.0000    0.0000   -0.0000   -0.0000   -0.0000    0.0000   -0.0000    0.0000
    65 N2     3d2-       0.0000    0.0000    0.0000    0.0000   -0.0000    0.0000   -0.0000    0.0000   -0.0000    0.0000
    66 N2     3d2-      -0.0000   -0.0000    0.0000    0.0000   -0.0000   -0.0000   -0.0000    0.0000   -0.0000    0.0002
    67 N2     3d1-       0.0000    0.0000    0.0000   -0.0000    0.0000   -0.0174    0.0137   -0.0045    0.0053    0.0000
    68 N2     3d1-      -0.0000    0.0000    0.0000   -0.0000    0.0000   -0.0316    0.0251   -0.0069    0.0085   -0.0000
    69 N2     3d1-      -0.0000    0.0000    0.0000    0.0000   -0.0000   -0.0041    0.0029    0.0159   -0.0143    0.0000
    70 N2     3d0        0.0003    0.0009    0.0226   -0.0047    0.0208    0.0000   -0.0000   -0.0000    0.0000    0.0014
    71 N2     3d0       -0.0012   -0.0002    0.0210   -0.0067    0.0212    0.0000   -0.0000   -0.0000   -0.0000    0.0104
    72 N2     3d0       -0.0007    0.0008   -0.0235    0.0157   -0.0099    0.0000    0.0000   -0.0000   -0.0000    0.0211
    73 N2     3d1+       0.0000    0.0000    0.0000   -0.0000   -0.0000    0.0137    0.0174   -0.0057   -0.0042    0.0000
    74 N2     3d1+      -0.0000    0.0000    0.0000    0.0000   -0.0000    0.0249    0.0319   -0.0088   -0.0067   -0.0000
    75 N2     3d1+      -0.0000    0.0000    0.0000    0.0000   -0.0000    0.0032    0.0037    0.0202    0.0112   -0.0000
    76 N2     3d2+       0.0000    0.0000    0.0000    0.0000   -0.0000   -0.0000    0.0000    0.0000    0.0000    0.0000
    77 N2     3d2+       0.0000    0.0000    0.0000    0.0000   -0.0000   -0.0000    0.0000    0.0000    0.0000    0.0000
    78 N2     3d2+      -0.0000   -0.0000    0.0000    0.0000   -0.0000   -0.0000   -0.0000   -0.0000    0.0000    0.0000
    79 N2     4f3-       0.0000    0.0000   -0.0000   -0.0000    0.0000   -0.0000   -0.0000   -0.0000   -0.0000    0.0000
    80 N2     4f3-       0.0000    0.0000    0.0000    0.0000   -0.0000   -0.0000   -0.0000   -0.0000    0.0000   -0.0000
    81 N2     4f2-       0.0000    0.0000   -0.0000    0.0000   -0.0000   -0.0000   -0.0000   -0.0000   -0.0000    0.0000
    82 N2     4f2-      -0.0000    0.0000    0.0000    0.0000   -0.0000   -0.0000    0.0000    0.0000    0.0000    0.0000
    83 N2     4f1-       0.0000    0.0000    0.0000   -0.0000    0.0000   -0.0066    0.0052   -0.0032    0.0038   -0.0000
    84 N2     4f1-      -0.0000    0.0000    0.0000   -0.0000    0.0000   -0.0011    0.0009   -0.0002    0.0003   -0.0000
    85 N2     4f0       -0.0004    0.0003    0.0086    0.0006    0.0061    0.0000   -0.0000    0.0000   -0.0000    0.0003
    86 N2     4f0       -0.0004   -0.0003   -0.0032   -0.0016   -0.0026   -0.0000   -0.0000   -0.0000   -0.0000    0.0046
    87 N2     4f1+      -0.0000    0.0000   -0.0000   -0.0000   -0.0000    0.0052    0.0066   -0.0041   -0.0030    0.0000
    88 N2     4f1+      -0.0000    0.0000    0.0000   -0.0000    0.0000    0.0008    0.0012   -0.0003   -0.0002   -0.0000
    89 N2     4f2+       0.0000    0.0000   -0.0000    0.0000   -0.0000   -0.0000    0.0000    0.0000   -0.0000    0.0000
    90 N2     4f2+      -0.0000    0.0000    0.0000    0.0000   -0.0000    0.0000    0.0000   -0.0000   -0.0000    0.0000
    91 N2     4f3+      -0.0000   -0.0000    0.0000    0.0000    0.0000   -0.0000    0.0000    0.0000   -0.0001    0.0000
    92 N2     4f3+       0.0000   -0.0000   -0.0000   -0.0000    0.0000   -0.0001    0.0000    0.0000    0.0001   -0.0000
    93 X1     1s        -0.0029   -0.0015   -0.0225    0.0010    0.1103   -0.0000    0.0000    0.0001    0.0001   -0.6767
    94 X1     1s        -0.0002   -0.0001   -0.0038   -0.0002   -0.0216    0.0000    0.0000    0.0000   -0.0001   -0.4623
    95 X1     1s         0.0001    0.0001    0.0017    0.0000    0.0036   -0.0000   -0.0000   -0.0000    0.0001   -0.0413
    96 X1     2px        0.0000   -0.0000   -0.0000    0.0000    0.0000    0.0209    0.0311   -0.0111    0.0269    0.0001
    97 X1     2px       -0.0000   -0.0000    0.0000    0.0000   -0.0000   -0.0135   -0.0174    0.0349    0.0235   -0.0001
    98 X1     2px        0.0000    0.0000   -0.0000   -0.0000    0.0000    0.0041    0.0057   -0.0048    0.0013    0.0000
    99 X1     2py        0.0000   -0.0000    0.0000   -0.0000   -0.0000   -0.0266    0.0245   -0.0087   -0.0343    0.0001
   100 X1     2py        0.0000   -0.0000   -0.0000    0.0000    0.0000    0.0171   -0.0137    0.0275   -0.0297    0.0000
   101 X1     2py       -0.0000   -0.0000    0.0000   -0.0000   -0.0000   -0.0052    0.0045   -0.0038   -0.0017    0.0000
   102 X1     2pz        0.0001   -0.0002    0.0000   -0.0110   -0.0000   -0.0000   -0.0000   -0.0000   -0.0000    0.0017
   103 X1     2pz       -0.0000    0.0001   -0.0000    0.0064    0.0000    0.0000    0.0000    0.0000   -0.0000   -0.0002
   104 X1     2pz        0.0000   -0.0000    0.0000   -0.0020   -0.0000   -0.0000   -0.0000   -0.0000    0.0000    0.0001
   105 X1     3d2-       0.0000    0.0000    0.0000   -0.0000   -0.0000   -0.0000    0.0000    0.0000    0.0000    0.0006
   106 X1     3d2-      -0.0000   -0.0000   -0.0000    0.0000    0.0000    0.0000    0.0000    0.0000   -0.0000    0.0006
   107 X1     3d2-       0.0000    0.0000    0.0000   -0.0000   -0.0000   -0.0000    0.0000    0.0000    0.0000    0.0003
   108 X1     3d1-       0.0000   -0.0000   -0.0000    0.0000    0.0000    0.0003   -0.0021    0.0108    0.0060   -0.0000
   109 X1     3d1-      -0.0000    0.0000   -0.0000   -0.0000    0.0000    0.0002   -0.0004    0.0593   -0.0633   -0.0001
   110 X1     3d1-       0.0000    0.0000    0.0000   -0.0000   -0.0000   -0.0000   -0.0000   -0.0073    0.0117    0.0000
   111 X1     3d0       -0.0019   -0.0010    0.0042    0.0008    0.0586    0.0000    0.0000    0.0000    0.0000    0.0364
   112 X1     3d0       -0.0021   -0.0011   -0.0306    0.0004    0.0338   -0.0000    0.0000    0.0000    0.0000    0.0326
   113 X1     3d0        0.0002    0.0001    0.0048   -0.0000   -0.0011    0.0000    0.0000    0.0000   -0.0000    0.0188
   114 X1     3d1+       0.0000    0.0000   -0.0000    0.0000    0.0000   -0.0002   -0.0027    0.0138   -0.0049    0.0001
   115 X1     3d1+       0.0000    0.0000   -0.0000    0.0000    0.0000   -0.0001   -0.0005    0.0758    0.0493    0.0004
   116 X1     3d1+      -0.0000   -0.0000    0.0000    0.0000    0.0000    0.0000   -0.0000   -0.0094   -0.0090   -0.0000
   117 X1     3d2+       0.0000    0.0000    0.0000   -0.0000   -0.0000   -0.0000    0.0000    0.0000    0.0000    0.0001
   118 X1     3d2+      -0.0000   -0.0000   -0.0000    0.0000    0.0000   -0.0000   -0.0000   -0.0000    0.0000    0.0001
   119 X1     3d2+       0.0000    0.0000    0.0000   -0.0000   -0.0000   -0.0000    0.0000    0.0000    0.0000    0.0001


      Orbital                11        12        13        14        15        16        17        18        19        20
      Energy             0.0000    0.0000    0.0000    0.0000    0.0000    0.0102    0.0190    0.0194    0.0211    0.0348
      Occ. No.           0.2004    0.0052    0.2004    0.0042    0.0055    0.0000    0.0000    0.0000    0.0000    0.0000

     1 N1     1s         0.0000    0.0000   -0.0000    0.0000   -0.0000   -0.0008    0.0011    0.0000   -0.0000    0.0006
     2 N1     1s         0.0000    0.0001   -0.0000   -0.0000    0.0000   -0.0203    0.0334    0.0000    0.0000    0.0483
     3 N1     1s         0.0000    0.0000   -0.0000   -0.0000   -0.0000   -0.0001    0.0013    0.0000    0.0000    0.0014
     4 N1     1s         0.0000   -0.0002   -0.0000    0.0000    0.0001    0.0508    0.0616   -0.0000    0.0001    0.2652
     5 N1     1s        -0.0001   -0.0005    0.0002    0.0000    0.0001    0.9277   -1.6608   -0.0040    0.0007    2.5683
     6 N1     2px       -0.0241   -0.2643    0.0305   -0.6835    0.5048    0.0000   -0.0000    0.0211    0.0073    0.0000
     7 N1     2px       -0.0015   -0.0291    0.0031    0.1478   -0.0295   -0.0000    0.0000   -0.0042    0.0066   -0.0000
     8 N1     2px        0.0122    0.2384   -0.0190    0.6412   -0.4488    0.0000   -0.0000    0.0101   -0.0307   -0.0000
     9 N1     2px        0.1091    0.3904   -0.1628   -0.0016   -0.3654    0.0001    0.0008   -0.3838    0.0811   -0.0021
    10 N1     2py        0.0303   -0.2075    0.0242    0.8670   -0.6422   -0.0000   -0.0000    0.0166   -0.0093    0.0001
    11 N1     2py        0.0019   -0.0231    0.0024   -0.1875    0.0377   -0.0000    0.0000   -0.0033   -0.0084    0.0000
    12 N1     2py       -0.0153    0.1869   -0.0151   -0.8121    0.5721    0.0000   -0.0000    0.0080    0.0389   -0.0001
    13 N1     2py       -0.1374    0.3001   -0.1289   -0.0005    0.4755    0.0002    0.0001   -0.3009   -0.1036   -0.0021
    14 N1     2pz        0.0000    0.0000   -0.0000   -0.0000   -0.0000   -0.0059    0.0196    0.0000    0.0000    0.0168
    15 N1     2pz        0.0000    0.0000   -0.0000   -0.0000    0.0000   -0.0018    0.0008    0.0000   -0.0000   -0.0054
    16 N1     2pz        0.0000    0.0001   -0.0000   -0.0001   -0.0000   -0.0324   -0.0027    0.0001   -0.0000   -0.1189
    17 N1     2pz        0.0000    0.0008   -0.0000   -0.0002    0.0000   -0.4138   -1.6643   -0.0019   -0.0004   -1.1057
    18 N1     3d2-       0.0000   -0.0000    0.0000    0.0000   -0.0000   -0.0000    0.0000    0.0000   -0.0000    0.0000
    19 N1     3d2-      -0.0000   -0.0000    0.0000    0.0000    0.0000   -0.0000    0.0000    0.0000   -0.0000   -0.0000
    20 N1     3d2-      -0.0000   -0.0000    0.0000    0.0000   -0.0000   -0.0000   -0.0000   -0.0000   -0.0000    0.0001
    21 N1     3d1-      -0.0037    0.0019   -0.0032   -0.0381    0.0172    0.0000    0.0000   -0.0004    0.0003   -0.0000
    22 N1     3d1-      -0.0089    0.1225   -0.0074   -0.0104    0.1723    0.0000    0.0000   -0.0010    0.0002    0.0000
    23 N1     3d1-       0.0042    0.0765    0.0044    0.0556    0.0795    0.0000   -0.0000    0.0028   -0.0010    0.0000
    24 N1     3d0       -0.0000   -0.0000    0.0000   -0.0000    0.0000    0.0004   -0.0001    0.0000   -0.0000   -0.0008
    25 N1     3d0       -0.0000   -0.0000    0.0000    0.0000    0.0000    0.0013    0.0048    0.0000   -0.0000   -0.0023
    26 N1     3d0        0.0000   -0.0000    0.0000    0.0000   -0.0000    0.0154   -0.0404   -0.0001    0.0000    0.0476
    27 N1     3d1+       0.0030    0.0024   -0.0040    0.0301   -0.0135   -0.0000    0.0000   -0.0005   -0.0003    0.0000
    28 N1     3d1+       0.0070    0.1558   -0.0094    0.0080   -0.1356   -0.0000    0.0000   -0.0013   -0.0002    0.0000
    29 N1     3d1+      -0.0034    0.0970    0.0055   -0.0442   -0.0629    0.0000   -0.0000    0.0036    0.0008    0.0000
    30 N1     3d2+       0.0000    0.0000   -0.0000    0.0000   -0.0000   -0.0000    0.0000   -0.0000   -0.0000    0.0000
    31 N1     3d2+       0.0000   -0.0000    0.0000    0.0000    0.0000   -0.0000    0.0000    0.0000    0.0000    0.0000
    32 N1     3d2+      -0.0000    0.0000    0.0000   -0.0000    0.0000   -0.0000   -0.0000   -0.0000   -0.0000    0.0000
    33 N1     4f3-       0.0000    0.0004   -0.0000    0.0014   -0.0005   -0.0000    0.0000   -0.0000   -0.0000    0.0000
    34 N1     4f3-      -0.0000   -0.0001    0.0001   -0.0043    0.0017    0.0000   -0.0000   -0.0000    0.0001   -0.0000
    35 N1     4f2-      -0.0000    0.0000   -0.0000   -0.0000    0.0000   -0.0000    0.0000   -0.0000   -0.0000    0.0000
    36 N1     4f2-       0.0000   -0.0000   -0.0000   -0.0000   -0.0000    0.0000    0.0000    0.0000    0.0000    0.0000
    37 N1     4f1-       0.0015    0.0080    0.0013    0.0050    0.0089    0.0000   -0.0000    0.0002    0.0001   -0.0000
    38 N1     4f1-      -0.0002   -0.0451   -0.0003   -0.0086   -0.0588    0.0000    0.0000   -0.0007   -0.0005   -0.0000
    39 N1     4f0        0.0000    0.0000   -0.0000   -0.0000    0.0000    0.0001   -0.0009   -0.0000    0.0000    0.0006
    40 N1     4f0        0.0000    0.0000   -0.0000   -0.0000   -0.0000   -0.0020    0.0023    0.0000   -0.0000   -0.0039
    41 N1     4f1+      -0.0012    0.0101    0.0016   -0.0039   -0.0070    0.0000   -0.0000    0.0002   -0.0001   -0.0000
    42 N1     4f1+       0.0001   -0.0574   -0.0003    0.0070    0.0462   -0.0000    0.0000   -0.0009    0.0004   -0.0000
    43 N1     4f2+      -0.0000    0.0000   -0.0000    0.0000   -0.0000   -0.0000    0.0000   -0.0000    0.0000    0.0000
    44 N1     4f2+       0.0000    0.0000   -0.0000   -0.0000    0.0000    0.0000    0.0000    0.0000   -0.0000    0.0000
    45 N1     4f3+       0.0000   -0.0002    0.0000    0.0031   -0.0011   -0.0000    0.0000    0.0000   -0.0000    0.0000
    46 N1     4f3+      -0.0000    0.0000   -0.0000   -0.0093    0.0037    0.0000   -0.0000    0.0000    0.0002   -0.0000
    47 N2     1s        -0.0000   -0.0000    0.0000    0.0000   -0.0000    0.0008    0.0011    0.0000   -0.0000   -0.0006
    48 N2     1s        -0.0000   -0.0000    0.0001    0.0000   -0.0000    0.0199    0.0335    0.0001   -0.0000   -0.0479
    49 N2     1s        -0.0000    0.0000    0.0000    0.0000   -0.0000    0.0001    0.0013    0.0000   -0.0000   -0.0014
    50 N2     1s        -0.0000    0.0002    0.0000   -0.0002    0.0000   -0.0520    0.0605    0.0002   -0.0001   -0.2640
    51 N2     1s         0.0001    0.0013   -0.0002   -0.0000   -0.0002   -0.9237   -1.6705   -0.0012   -0.0008   -2.5473
    52 N2     2px       -0.1240    1.0688    0.1674   -0.5835   -0.6742    0.0000   -0.0000   -0.0032    0.0077   -0.0001
    53 N2     2px       -0.0001   -0.1732    0.0004    0.1620    0.0881    0.0000    0.0000   -0.0061    0.0066   -0.0000
    54 N2     2px       -0.0081   -0.9639    0.0080    0.5366    0.5951   -0.0000   -0.0001    0.0387   -0.0321    0.0001
    55 N2     2px        0.0594   -0.4700   -0.0749   -0.0489    0.3539   -0.0004   -0.0004    0.1354    0.0787    0.0019
    56 N2     2py        0.1562    0.8409    0.1329    0.7408    0.8571    0.0000   -0.0000   -0.0025   -0.0098   -0.0000
    57 N2     2py        0.0001   -0.1363    0.0003   -0.2059   -0.1119    0.0000    0.0000   -0.0048   -0.0083   -0.0000
    58 N2     2py        0.0102   -0.7580    0.0064   -0.6821   -0.7579   -0.0000   -0.0000    0.0304    0.0408    0.0001
    59 N2     2py       -0.0748   -0.3627   -0.0597    0.0639   -0.4607   -0.0003    0.0002    0.1051   -0.0990    0.0021
    60 N2     2pz        0.0000   -0.0000   -0.0000   -0.0000   -0.0000   -0.0057   -0.0196   -0.0000    0.0000    0.0165
    61 N2     2pz        0.0000    0.0000   -0.0000   -0.0000    0.0000   -0.0019   -0.0008    0.0000   -0.0000   -0.0054
    62 N2     2pz        0.0000    0.0001   -0.0000   -0.0000   -0.0000   -0.0321    0.0021    0.0001   -0.0000   -0.1195
    63 N2     2pz       -0.0000   -0.0004   -0.0000    0.0003   -0.0001   -0.4145    1.6594    0.0032   -0.0003   -1.1323
    64 N2     3d2-      -0.0000   -0.0000    0.0000    0.0000    0.0000   -0.0000   -0.0000    0.0000   -0.0000    0.0000
    65 N2     3d2-      -0.0000   -0.0000    0.0000    0.0000   -0.0000    0.0000    0.0000    0.0000   -0.0000   -0.0000
    66 N2     3d2-       0.0000   -0.0000   -0.0000   -0.0000   -0.0000    0.0000   -0.0000   -0.0000    0.0000    0.0000
    67 N2     3d1-       0.0027    0.0346    0.0022    0.0357    0.0322    0.0000   -0.0000    0.0001   -0.0004   -0.0000
    68 N2     3d1-       0.0072    0.1331    0.0059   -0.0216    0.1805    0.0000   -0.0000    0.0007   -0.0005    0.0000
    69 N2     3d1-      -0.0013    0.0282   -0.0023   -0.0740    0.0693    0.0000    0.0000   -0.0000    0.0010    0.0000
    70 N2     3d0        0.0000    0.0000   -0.0000   -0.0000    0.0000   -0.0004   -0.0001   -0.0000    0.0000    0.0008
    71 N2     3d0        0.0000    0.0000   -0.0000   -0.0000   -0.0000   -0.0013    0.0048    0.0000    0.0000    0.0023
    72 N2     3d0        0.0000    0.0000   -0.0000    0.0000    0.0000   -0.0150   -0.0407   -0.0000   -0.0000   -0.0477
    73 N2     3d1+      -0.0022    0.0440    0.0028   -0.0280   -0.0253    0.0000   -0.0000    0.0001    0.0003   -0.0000
    74 N2     3d1+      -0.0057    0.1691    0.0074    0.0168   -0.1421    0.0000   -0.0000    0.0009    0.0004    0.0000
    75 N2     3d1+       0.0011    0.0358   -0.0029    0.0581   -0.0549   -0.0000   -0.0000    0.0000   -0.0008    0.0000
    76 N2     3d2+       0.0000    0.0000    0.0000    0.0000    0.0000   -0.0000   -0.0000   -0.0000   -0.0000    0.0000
    77 N2     3d2+       0.0000   -0.0000    0.0000    0.0000    0.0000    0.0000    0.0000    0.0000    0.0000   -0.0000
    78 N2     3d2+       0.0000    0.0000   -0.0000    0.0000    0.0000    0.0000   -0.0000   -0.0000   -0.0000    0.0000
    79 N2     4f3-       0.0000   -0.0003   -0.0000   -0.0003    0.0001   -0.0000    0.0000    0.0000   -0.0000    0.0000
    80 N2     4f3-      -0.0000    0.0012    0.0001   -0.0015    0.0000    0.0000   -0.0000   -0.0000    0.0000   -0.0000
    81 N2     4f2-       0.0000   -0.0000   -0.0000    0.0000    0.0000    0.0000    0.0000   -0.0000   -0.0000   -0.0000
    82 N2     4f2-       0.0000   -0.0000    0.0000   -0.0000    0.0000   -0.0000    0.0000    0.0000    0.0000    0.0000
    83 N2     4f1-       0.0008   -0.0003    0.0007    0.0081   -0.0037   -0.0000   -0.0000    0.0004    0.0001    0.0000
    84 N2     4f1-      -0.0003    0.0384   -0.0002   -0.0174    0.0577   -0.0000    0.0000   -0.0002   -0.0006    0.0000
    85 N2     4f0        0.0000    0.0000   -0.0000    0.0000    0.0000    0.0001    0.0009    0.0000    0.0000    0.0006
    86 N2     4f0        0.0000    0.0000   -0.0000   -0.0000    0.0000   -0.0019   -0.0023   -0.0000   -0.0000   -0.0039
    87 N2     4f1+      -0.0006   -0.0004    0.0008   -0.0064    0.0029    0.0000   -0.0000    0.0005   -0.0001    0.0000
    88 N2     4f1+       0.0003    0.0488   -0.0003    0.0137   -0.0455   -0.0000   -0.0000   -0.0002    0.0005    0.0000
    89 N2     4f2+       0.0000   -0.0000    0.0000    0.0000    0.0000    0.0000    0.0000   -0.0000    0.0000   -0.0000
    90 N2     4f2+       0.0000    0.0000   -0.0000    0.0000    0.0000   -0.0000    0.0000   -0.0000   -0.0000    0.0000
    91 N2     4f3+       0.0000    0.0001    0.0000   -0.0006    0.0003   -0.0000   -0.0000   -0.0000   -0.0000    0.0000
    92 N2     4f3+      -0.0000   -0.0006   -0.0000   -0.0033    0.0000    0.0000   -0.0000    0.0000    0.0001   -0.0000
    93 X1     1s        -0.0000   -0.0006   -0.0000   -0.0003    0.0004   -0.0091    4.7865    0.0075    0.0000   -0.0249
    94 X1     1s        -0.0001   -0.0001   -0.0000    0.0004   -0.0005    0.0181   -5.6698   -0.0090    0.0002    0.0126
    95 X1     1s         0.0000    0.0002    0.0000   -0.0002    0.0003   -0.0130    3.7320    0.0059   -0.0002   -0.0041
    96 X1     2px        0.2796    0.1293   -0.3419   -0.0690   -0.0008    0.0004   -0.0012    0.7852   -0.6733    0.0011
    97 X1     2px        0.2266    0.0749   -0.2753   -0.1360   -0.0184   -0.0009    0.0032   -1.9998    1.7242   -0.0026
    98 X1     2px        0.0151    0.0066   -0.0133    0.0076    0.0017    0.0013   -0.0030    1.8571   -1.5229    0.0016
    99 X1     2py       -0.3519    0.1017   -0.2716    0.0883    0.0005    0.0001   -0.0009    0.6190    0.8540    0.0002
   100 X1     2py       -0.2857    0.0588   -0.2186    0.1721    0.0238   -0.0002    0.0023   -1.5764   -2.1870   -0.0004
   101 X1     2py       -0.0189    0.0054   -0.0106   -0.0096   -0.0023    0.0004   -0.0022    1.4640    1.9317    0.0002
   102 X1     2pz       -0.0001   -0.0002    0.0003   -0.0000    0.0000    0.8705    0.0051   -0.0012    0.0006    2.1659
   103 X1     2pz       -0.0001   -0.0002    0.0002    0.0001   -0.0000   -1.2920   -0.0061    0.0022   -0.0011   -3.7458
   104 X1     2pz       -0.0000    0.0000    0.0000   -0.0000    0.0000    1.7111    0.0068   -0.0019    0.0009    2.0650
   105 X1     3d2-      -0.0000   -0.0000    0.0000   -0.0000    0.0000    0.0000    0.0003    0.0000   -0.0000   -0.0003
   106 X1     3d2-      -0.0000   -0.0000   -0.0000    0.0001   -0.0000    0.0001   -0.0005   -0.0000   -0.0000    0.0004
   107 X1     3d2-      -0.0000   -0.0000    0.0000   -0.0000    0.0000    0.0002    0.0005    0.0000   -0.0000   -0.0012
   108 X1     3d1-      -0.0019    0.0554   -0.0044   -0.0324    0.1113    0.0000   -0.0000    0.0072    0.0003    0.0002
   109 X1     3d1-       0.0058   -0.0651    0.0023   -0.0004   -0.0683   -0.0001    0.0000    0.0831    0.0014    0.0010
   110 X1     3d1-      -0.0026    0.0153   -0.0090   -0.0027    0.0243    0.0001   -0.0000   -0.0656    0.0004   -0.0006
   111 X1     3d0        0.0000   -0.0001    0.0000    0.0000   -0.0000   -0.0006    0.3670    0.0006   -0.0000   -0.0020
   112 X1     3d0        0.0000   -0.0003   -0.0000    0.0000    0.0000    0.0006    0.8020    0.0012    0.0001   -0.0081
   113 X1     3d0        0.0000   -0.0000    0.0000    0.0000   -0.0000   -0.0012   -0.1131   -0.0001   -0.0000    0.0042
   114 X1     3d1+       0.0014    0.0693   -0.0056    0.0256   -0.0886    0.0000   -0.0000    0.0093   -0.0002    0.0001
[...]
           3  ( 1:1:   1/   3)   u2d0000000       0.080078       0.006412
           7  ( 1:1:   1/   7)   2u0d000000       0.071473       0.005108
          51  ( 2:1:   1/   1)   2u000d0000       0.684766       0.468905
          58  ( 2:1:   3/   2)   u200000d00      -0.685693       0.470175
          83  ( 2:1:   3/   7)   u020000d00       0.099061       0.009813
         113  ( 2:1:   3/  13)   0udu000d00      -0.089770       0.008059
         126  ( 2:1:   1/  16)   u0ud0d0000      -0.087007       0.007570
         141  ( 2:1:   1/  19)   0u020d0000       0.099472       0.009895

  The CI coefficients for the MIXED state nr.  10
--------------------------------------------------------------------------------
 CI COEFFICIENTS LARGER THAN  0.50D-01
  Occupation of active orbitals, and spin coupling
  of open shells. (u,d: Spin up or down).
  SGUGA info is (Midvert:IsyUp:UpperWalk/LowerWalk)
        Conf  SGUGA info        Occupation     Coefficient         Weight
           8  ( 1:1:   1/   8)   u20d000000       0.052424       0.002748
          53  ( 2:1:   3/   1)   2u00000d00       0.627538       0.393804
          56  ( 2:1:   1/   2)   u2000d0000       0.739289       0.546548
          81  ( 2:1:   1/   7)   u0200d0000      -0.104035       0.010823
         111  ( 2:1:   1/  13)   0udu0d0000       0.094990       0.009023
         128  ( 2:1:   3/  16)   u0ud000d00      -0.077113       0.005946
         143  ( 2:1:   3/  19)   0u02000d00       0.088366       0.007809

--

--- Stop Module: caspt2 at Mon Jun 22 16:23:07 2020 /rc=_RC_ALL_IS_WELL_ ---
*** files: xmldump
    saved to directory /home/gayverjr/OpenCAP/molcas_test/full_N2_example/gs
--- Module caspt2 spent 3 minutes 48 seconds ---

--- Start Module: rassi at Mon Jun 22 16:23:07 2020 ---

()()()()()()()()()()()()()()()()()()()()()()()()()()()()()()()()()()()()()()()()()()()()()()()()()()

                                               &RASSI

                                   only a single process is used
                       available to each process: 20 GB of memory, 16 threads
                                             pid: 48571
()()()()()()()()()()()()()()()()()()()()()()()()()()()()()()()()()()()()()()()()()()()()()()()()()()


      ********************************************************************************
      *                                                                              *
      *                             General data section                             *
      *                                                                              *
      ********************************************************************************

   Specific data for JOBIPH file JOBIPH                                                                                                                          
   -------------------------------------

   Header from SEWARD:
                                                                               
        Integrals generated by seward 4.2.0  , Mon Jun 22 16:09:22 2020        

   CASSCF title (first line only):
       cas 3,9 test                                                            

   STATE IRREP:                            1
   SPIN MULTIPLICITY:                      1
   ACTIVE ELECTRONS:                       4
   MAX RAS1 HOLES:                         0
   MAX RAS3 ELECTRONS:                     0
   NR OF CONFIG:                         825

  Info: creating TDMFILE
        estimated file size                 14935 kB
        TDMs in AO format


   The following data are common to all the states:
   ------------------------------------------------
   (note: frozen counts as inactive, deleted as secondary)

      Nr of irreps: 1

                 Total     No./Irrep 
      Irrep                  1
                             a

      INACTIVE       5       5
      ACTIVE        10      10
      SECONDARY    104     104
      BASIS        119     119

      RAS1           0       0
      RAS2          10      10
      RAS3           0       0

        MATRIX ELEMENTS WILL BE COMPUTED FOR THE FOLLOWING ONE-ELECTRON OPERATORS, UNLESS ZERO BY SYMMETRY.
   (Herm=Hermitian, Anti=Antihermitian, Sing=Singlet operator, Trip=Triplet operator)
     MLTPL  0   1 (HERMSING)     MLTPL  1   1 (HERMSING)     MLTPL  1   2 (HERMSING)
     MLTPL  1   3 (HERMSING)     MLTPL  2   1 (HERMSING)     MLTPL  2   2 (HERMSING)
     MLTPL  2   3 (HERMSING)     MLTPL  2   4 (HERMSING)     MLTPL  2   5 (HERMSING)
     MLTPL  2   6 (HERMSING)     VELOCITY   1 (ANTISING)     VELOCITY   2 (ANTISING)
     VELOCITY   3 (ANTISING)     ANGMOM     1 (ANTISING)     ANGMOM     2 (ANTISING)
     ANGMOM     3 (ANTISING)     MLTPV  2   1 (ANTISING)     MLTPV  2   2 (ANTISING)
     MLTPV  2   3 (ANTISING)     MLTPV  2   4 (ANTISING)     MLTPV  2   5 (ANTISING)
     MLTPV  2   6 (ANTISING)

       EIGENSTATES OF A SPIN-FREE HAMILTONIAN WILL BE COMPUTED BASED ON:

  a (effective) Hamiltonian matrix that was read from the wavefunction file(s).
  SO coupling elements will be added.
       EIGENSTATES OF SPIN-ORBIT HAMILTONIAN WILL BE COMPUTED
        MATRIX ELEMENTS OVER SPIN EIGENSTATES FOR:
     MLTPL  0   1 (HERMSING)     MLTPL  1   1 (HERMSING)     MLTPL  1   2 (HERMSING)
     MLTPL  1   3 (HERMSING)     MLTPL  2   1 (HERMSING)     MLTPL  2   2 (HERMSING)
     MLTPL  2   3 (HERMSING)     MLTPL  2   4 (HERMSING)     MLTPL  2   5 (HERMSING)
     MLTPL  2   6 (HERMSING)     VELOCITY   1 (ANTISING)     VELOCITY   2 (ANTISING)
     VELOCITY   3 (ANTISING)     ANGMOM     1 (ANTISING)     ANGMOM     2 (ANTISING)
     ANGMOM     3 (ANTISING)     MLTPV  2   1 (ANTISING)     MLTPV  2   2 (ANTISING)
     MLTPV  2   3 (ANTISING)     MLTPV  2   4 (ANTISING)     MLTPV  2   5 (ANTISING)
     MLTPV  2   6 (ANTISING)

  Nr of states:                   10

   State:        1   2   3   4   5   6   7   8   9  10
  JobIph:        1   1   1   1   1   1   1   1   1   1
 Root nr:        1   2   3   4   5   6   7   8   9  10

  HAMILTONIAN MATRIX FOR THE ORIGINAL STATES:

  Diagonal, with energies
   -109.34997544   -108.98806623   -108.96969328   -108.97221416   -108.85649273
   -108.85658721   -108.82545142   -108.82663861   -108.82428464   -108.82090279

      OVERLAP MATRIX FOR THE ORIGINAL STATES:

  Diagonal, with elements
      1.00000000      1.00000000      1.00000000      1.00000000      1.00000000
      1.00000000      1.00000000      1.00000000      1.00000000      1.00000000

::    RASSI State    1     Total energy:   -109.34997544
::    RASSI State    2     Total energy:   -108.98806623
::    RASSI State    3     Total energy:   -108.96969328
::    RASSI State    4     Total energy:   -108.97221416
::    RASSI State    5     Total energy:   -108.85649273
::    RASSI State    6     Total energy:   -108.85658721
::    RASSI State    7     Total energy:   -108.82545142
::    RASSI State    8     Total energy:   -108.82663861
::    RASSI State    9     Total energy:   -108.82428464
::    RASSI State   10     Total energy:   -108.82090279



      ****************************************************************************************************
      *                                                                                                  *
      *                                         Spin-free section                                        *
      *                                                                                                  *
      *                 Note: index according to input order, order according to energy.                 *
      *                                                                                                  *
      ****************************************************************************************************



  SPIN-FREE ENERGIES:
  (Shifted by EMIN (a.u.) =       -109.3499754359)

 SF State       Relative EMIN(au)   Rel lowest level(eV)    D:o, cm**(-1)

     1             0.0000000000        0.0000000000              0.0000
     2             0.3619092042        9.8480511427          79429.8892
     4             0.3777612780       10.2794080447          82909.0172
     3             0.3802821569       10.3480046526          83462.2862
     6             0.4933882284       13.4257776511         108286.1995
     5             0.4934827038       13.4283484596         108306.9345
     8             0.5233368299       14.2407206147         114859.1578
     7             0.5245240115       14.2730254718         115119.7141
     9             0.5256907933       14.3047752230         115375.7931
    10             0.5290726509       14.3968002555         116118.0250

++ Dipole transition strengths (spin-free states):
   -----------------------------------------------
     for osc. strength at least  1.00000000E-05

      From   To        Osc. strength     Einstein coefficients Ax, Ay, Az (sec-1)    Total A (sec-1)
     -----------------------------------------------------------------------------------------------
         1    3       1.01791736E-03  2.51253086E-02  3.15518384E-02  4.72971854E+06  4.72971860E+06
         1    6       8.66111669E-02  2.59409279E+08  4.18017469E+08  4.54407255E-04  6.77426748E+08
         1    5       9.97128765E-02  4.81375311E+08  2.98824782E+08  4.55342037E+00  7.80200097E+08
         1    8       4.84806135E-05  4.42947810E-01  1.35136507E-01  4.26619793E+05  4.26620372E+05
         1   10       9.93302797E-04  3.16790596E-02  4.27970122E-01  8.93353091E+06  8.93353137E+06
         2    4       1.28652566E-05  3.88778680E-05  1.84854937E-05  1.03872663E+02  1.03872720E+02
         2    6       1.90334899E-04  6.50815148E+04  4.06337603E+04  1.09775308E+00  1.05716373E+05
         2    7       1.39114353E-02  1.43892580E-01  7.54506454E-01  1.18196051E+07  1.18196060E+07
         2    9       1.49256247E-02  8.06916187E-01  1.51844031E-01  1.28639259E+07  1.28639269E+07
         4    6       6.55826176E-04  1.73589587E+05  1.08128213E+05  2.26073479E+00  2.81720061E+05
         4    7       1.74215250E-02  5.03840833E-01  9.14613009E-03  1.20567046E+07  1.20567051E+07
         4    9       7.47645838E-03  7.71262668E-01  1.09334066E+00  5.25673784E+06  5.25673970E+06
         3    6       1.12274835E-04  1.76469870E+04  2.85023105E+04  5.44609623E-03  4.61493030E+04
         3    5       9.31019968E-04  2.36312846E+05  1.47010401E+05  1.56341217E+00  3.83324811E+05
         3    8       2.54400385E-02  9.34122506E-01  5.03118599E-02  1.67275648E+07  1.67275657E+07
         3   10       7.86717392E-04  3.50796389E-02  9.86956905E-01  5.59601943E+05  5.59602965E+05
         6    8       1.27469540E-01  1.40734977E+06  2.26606855E+06  9.16704554E-02  3.67341841E+06
         6    7       3.24428710E-02  6.23365872E+05  3.87165219E+05  1.63725923E-01  1.01053125E+06
         6    9       2.88200388E-01  5.96203105E+06  3.70024391E+06  1.56933075E+00  9.66227653E+06
         6   10       2.06131112E-01  3.22929309E+06  5.20428295E+06  2.34912406E-01  8.43357627E+06
         5    8       1.71727985E-01  3.03359039E+06  1.88409352E+06  8.09091695E-01  4.91768471E+06
         5    7       2.80713668E-01  3.32970992E+06  5.36098387E+06  2.19480564E-01  8.69069401E+06
         5    9       3.42244494E-02  4.36661258E+05  7.04054054E+05  2.88924622E-02  1.14071534E+06
         5   10       1.44776950E-01  3.63530365E+06  2.25672584E+06  1.05511028E+00  5.89203055E+06
         8   10       3.08060945E-05  6.46124548E-05  2.19227440E-05  3.25639856E+01  3.25640721E+01
     -----------------------------------------------------------------------------------------------
--

++ Velocity transition strengths (spin-free states):
   -------------------------------------------------
     for osc. strength at least  1.00000000E-05

      From   To        Osc. strength     Einstein coefficients Ax, Ay, Az (sec-1)    Total A (sec-1)
     -----------------------------------------------------------------------------------------------
         1    3       1.76460156E-03  1.16836157E-02  7.63832123E-02  8.19916140E+06  8.19916149E+06
         1    6       5.15346347E-02  1.54363422E+08  2.48713240E+08  1.09622116E-01  4.03076661E+08
         1    5       4.65893425E-02  2.24944884E+08  1.39591881E+08  2.42261202E-02  3.64536766E+08
         1    8       2.11473819E-04  2.96531933E-02  5.12347434E-03  1.86093020E+06  1.86093023E+06
         1   10       2.12765315E-03  4.63047381E-02  6.34212462E-02  1.91356111E+07  1.91356113E+07
         2    4       3.95787442E-05  2.02071827E-06  5.15887004E-06  3.19554585E+02  3.19554592E+02
         2    6       2.16030371E-04  7.40365855E+04  4.59515710E+04  7.16306519E-02  1.19988228E+05
         2    7       4.62010199E-03  7.93119860E-04  2.26592117E-01  3.92538808E+06  3.92538831E+06
         2    9       9.05735142E-03  5.29902485E-01  1.44879271E-01  7.80624586E+06  7.80624654E+06
         4    6       8.76879919E-04  2.32266800E+05  1.44410048E+05  1.93121475E-01  3.76677042E+05
         4    7       9.27130981E-03  2.30252611E-01  3.77038046E-03  6.41628351E+06  6.41628375E+06
         4    9       7.58611853E-03  8.57031727E-01  6.47349460E-01  5.33384086E+06  5.33384236E+06
         3    6       2.74370984E-05  4.34282749E+03  6.93482303E+03  5.89285758E-02  1.12777094E+04
         3    5       5.00283481E-04  1.26993497E+05  7.89859283E+04  1.20744123E-01  2.05979546E+05
         3    8       1.61688494E-02  5.87523128E-01  9.53889407E-02  1.06314884E+07  1.06314891E+07
         3   10       9.41020078E-05  1.52045182E-01  4.41646610E-01  6.69354663E+04  6.69360600E+04
         6    8       1.00271001E-01  1.10717721E+06  1.78243338E+06  7.24535094E-02  2.88961066E+06
         6    7       2.42687814E-02  4.66323485E+05  2.89600851E+05  1.98139478E-01  7.55924534E+05
         6    9       2.09379871E-01  4.33160991E+06  2.68810895E+06  1.75808459E+00  7.01972062E+06
         6   10       2.12426878E-01  3.32850951E+06  5.36264942E+06  1.02237926E-01  8.69115904E+06
         5    8       1.51021116E-01  2.66788071E+06  1.65683116E+06  1.05878862E+00  4.32471292E+06
         5    7       2.23406287E-01  2.65020578E+06  4.26629264E+06  1.62048322E-01  6.91649857E+06
         5    9       2.66422856E-02  3.39947582E+05  5.48051020E+05  1.92622462E-02  8.87998622E+05
         5   10       1.42286754E-01  3.57306186E+06  2.21762353E+06  9.45261855E-01  5.79068633E+06
         8   10       1.12902376E-03  3.18807033E-06  1.38971473E-04  1.19345238E+03  1.19345252E+03
         7    9       2.31405806E-05  2.48416697E-07  2.90938918E-07  1.01219508E+00  1.01219562E+00
     -----------------------------------------------------------------------------------------------
--

++ Length and velocity gauge comparison (spin-free states):
   --------------------------------------------------------

 --------------------------------------------------
 A comparison between the dipole oscillator strengths in 
 length and velocity gauge will be performed

 All dipole oscillator differences above the tolerance of   0.10000000000000001       will be printed 

 Due to basis set deficiency these oscillator may be problematic 

 The tolerance is defined as ABS(1-O_l/O_v) 
 O_l : dipole oscillator strength in length gauge
 O_p : dipole oscillator strength in velocity gauge
 --------------------------------------------------

  Problematic transitions have been found

      From   To       Difference (%) Osc. st. (len.) Osc. st. (vel.)
     ---------------------------------------------------------------
         1    3            42.314606  1.01791736E-03  1.76460156E-03
         1    6            68.063997  8.66111669E-02  5.15346347E-02
         1    5           114.025078  9.97128765E-02  4.65893425E-02
         1    8            77.074886  4.84806135E-05  2.11473819E-04
         1   10            53.314628  9.93302797E-04  2.12765315E-03
         2    4            67.494531  1.28652566E-05  3.95787442E-05
         2    6            11.894380  1.90334899E-04  2.16030371E-04
         2    7           201.106670  1.39114353E-02  4.62010199E-03
         2    9            64.790169  1.49256247E-02  9.05735142E-03
         4    6            25.209124  6.55826176E-04  8.76879919E-04
         4    7            87.907916  1.74215250E-02  9.27130981E-03
         3    6           309.208121  1.12274835E-04  2.74370984E-05
         3    5            86.098483  9.31019968E-04  5.00283481E-04
         3    8            57.339819  2.54400385E-02  1.61688494E-02
         3   10           736.026149  7.86717392E-04  9.41020078E-05
         6    8            27.125030  1.27469540E-01  1.00271001E-01
         6    7            33.681500  3.24428710E-02  2.42687814E-02
         6    9            37.644745  2.88200388E-01  2.09379871E-01
         5    8            13.711240  1.71727985E-01  1.51021116E-01
         5    7            25.651642  2.80713668E-01  2.23406287E-01
         5    9            28.459134  3.42244494E-02  2.66422856E-02
         8   10            97.271440  3.08060945E-05  1.12902376E-03
         7    9      --------------- below threshold  2.31405806E-05
     ---------------------------------------------------------------

 Number of problematic transitions =                    23

--

 Electric-dipole - electric-octupole not included
 Electric-dipole - magnetic-quadrupole not included


      ****************************************************************************************************
      *                                                                                                  *
      *                                    Special properties section                                    *
      *                                                                                                  *
      ****************************************************************************************************


++ I/O STATISTICS
 
  I. General I/O information
  - - - - - - - - - - - - - - - - - - - - - - - - - - - - - - - - - - - - - - - - - - -
  Unit  Name          Flsize      Write/Read            MBytes           Write/Read
                      (MBytes)       Calls              In/Out           Time, sec.
  - - - - - - - - - - - - - - - - - - - - - - - - - - - - - - - - - - - - - - - - - - -
   1  SCRATCH           0.16 .      10/      55 .      0.2/      0.8 .       0/       0
   2  ANNI              0.00 .       0/       0 .      0.0/      0.0 .       0/       0
   3  RUNFILE          13.56 .     182/    3450 .      1.3/     25.0 .       0/       0
   4  ONEINT            2.94 .       0/   11001 .      0.0/   3392.7 .       0/       0
   5  JOBIPH            3.92 .       0/      98 .      0.0/      1.6 .       0/       0
   6  TDMFILE          11.92 .     110/     110 .     11.9/     11.9 .       0/       0
  - - - - - - - - - - - - - - - - - - - - - - - - - - - - - - - - - - - - - - - - - - -
   *  TOTAL            32.49 .     302/   14714 .     13.3/   3431.9 .       0/       0
  - - - - - - - - - - - - - - - - - - - - - - - - - - - - - - - - - - - - - - - - - - -
 
  II. I/O Access Patterns
  - - - - - - - - - - - - - - - - - - - -
  Unit  Name               % of random
                         Write/Read calls
  - - - - - - - - - - - - - - - - - - - -
   1  SCRATCH             90.0/ 100.0
   2  ANNI                 0.0/   0.0
   3  RUNFILE             28.6/  10.9
   4  ONEINT               0.0/  32.9
   5  JOBIPH               0.0/  75.5
   6  TDMFILE             99.1/ 100.0
  - - - - - - - - - - - - - - - - - - - -
--
--- Stop Module: rassi at Mon Jun 22 16:23:09 2020 /rc=_RC_ALL_IS_WELL_ ---
*** files: gs_ms.rassi.h5 xmldump
    saved to directory /home/gayverjr/OpenCAP/molcas_test/full_N2_example/gs
--- Module rassi spent 1 second ---

.##################.
.# Happy landing! #.
.##################.

    Timing: Wall=827.75 User=8245.30 System=738.65
