[Molden Format]
[N_ATOMS]
     1
[Atoms] (Angs)
 Be      1    4      0.00000000      0.00000000      0.00000000
[5D]
[GTO]  (AU)
1    
S    6    1.000000
   1.26458569E+03    1.94475759E-03 
   1.89936806E+02    1.48350520E-02 
   4.31590890E+01    7.20905463E-02 
   1.20986627E+01    2.37154150E-01 
   3.80632322E+00    4.69198652E-01 
   1.27289030E+00    3.56520228E-01 
S   3    1.000000
   3.19646310E+00   -1.12648729E-01   
   7.47813304E-01   -2.29506408E-01   
   2.19966330E-01    1.18691676E+00   
P   3    1.000000
   3.19646310E+00    5.59801998E-02 
   7.47813304E-01    2.61550611E-01 
   2.19966330E-01    7.93972339E-01 
S   1    1.000000
   8.23099007E-02    1.00000000E+00   1.00000000E+00
P   1    1.000000
   8.23099007E-02    1.00000000E+00   1.00000000E+00 
S   1    1.000000
   2.07000000E-02    1.00000000E+00   1.00000000E+00
P   1    1.000000
   2.07000000E-02    1.00000000E+00   1.00000000E+00  
S   1    1.000000
   4.00000000E-02    1.00000000E+00   1.00000000E+00 
P   1    1.000000
   4.00000000E-02    1.00000000E+00   1.00000000E+00 
D    1    1.000000
   4.00000000E-01    1.00000000E+00 

[MO]
Sym=1a
Ene= -4.150708
Spin=Alpha
Occup=1
     1   -9.974743173001e-01
     2   -4.517702368176e-02
     3    7.882144685530e-17
     4    7.212580024048e-16
     5   -4.336459887657e-16
     6    4.688153517726e-02
     7   -1.614531088323e-15
     8   -3.118337016338e-15
     9    2.023031804728e-15
    10    1.152402979101e-02
    11   -3.917512028361e-15
    12   -1.089772573426e-15
    13    2.541603563815e-15
    14   -3.431285632177e-02
    15    4.609244718874e-15
    16    3.624662899043e-15
    17   -3.272221261195e-15
    18    8.669176487786e-13
    19    0.000000000000e+00
    20    1.110223024625e-16
    21    1.668568811695e-13
    22    0.000000000000e+00
Sym=2a
Ene= -0.281716
Spin=Alpha
Occup=1
     1   -2.184746767618e-01
     2    3.757518070389e-01
     3    2.275507826694e-14
     4    5.928816787727e-15
     5   -2.106325708443e-14
     6    5.059377118759e-01
     7   -1.746974362309e-13
     8   -2.778039305597e-14
     9    1.893371179558e-13
    10    4.331510061845e-03
    11   -3.977733028730e-13
    12   -6.319072503718e-14
    13    4.630724138350e-13
    14    1.911307126634e-01
    15    4.533654053502e-13
    16    7.165798190544e-14
    17   -5.140156625152e-13
    18   -5.637768030198e-11
    19    0.000000000000e+00
    20    1.387778780781e-16
    21   -1.084997823812e-11
    22    0.000000000000e+00
Sym=3a
Ene= -0.011264
Spin=Alpha
Occup=0
     1    9.621691533071e-14
     2   -5.837995364624e-12
     3    1.436965021799e-12
     4   -5.099761250500e-13
     5    3.681320103193e-01
     6    2.439870958794e-11
     7   -1.018482956934e-11
     8    1.781285568266e-12
     9    2.737824407211e-01
    10    6.115009704479e-11
    11   -3.696659027063e-11
    12    5.600439562651e-12
    13    4.284449895243e-01
    14   -6.983785751217e-11
    15    3.270877941056e-11
    16   -5.771773157139e-12
    17    1.634733089309e-01
    18   -3.114692341900e-16
    19    5.890627741820e-16
    20    1.153559244830e-16
    21   -1.593270430082e-19
    22    3.991508090009e-16
Sym=4a
Ene= -0.011264
Spin=Alpha
Occup=0
     1    4.043951975683e-14
     2   -4.514529794318e-12
     3   -3.681320077666e-01
     4    4.633487199552e-12
     5   -7.351618066479e-12
     6    1.907518693725e-11
     7   -2.737824423573e-01
     8    7.005366127642e-13
     9    5.787430864407e-12
    10    4.648046633986e-11
    11   -4.284450040411e-01
    12   -2.992316956510e-12
    13    3.008657130940e-11
    14   -5.359431362647e-11
    15   -1.634732965031e-01
    16    9.358852052992e-12
    17   -3.533848387527e-11
    18    1.372302879152e-16
    19    2.742654032470e-16
    20    1.199071547201e-16
    21   -2.403056603870e-16
    22   -1.943702245520e-16
Sym=5a
Ene= -0.011264
Spin=Alpha
Occup=0
     1   -1.168525525753e-14
     2   -8.634631394061e-14
     3   -2.755122891290e-12
     4   -3.681320071332e-01
     5    8.641805837822e-13
     6    4.420927370200e-13
     7   -4.793579787927e-12
     8   -2.737824427569e-01
     9   -1.516409878390e-12
    10    5.617083442800e-13
    11   -1.158917136187e-11
    12   -4.284450076336e-01
    13   -5.186008882800e-12
    14   -8.563354150745e-13
    15    6.077177965841e-12
    16   -1.634732934341e-01
    17    5.926468708755e-12
    18    1.354392555293e-16
    19    1.246669032323e-16
    20    1.918161572091e-16
    21    2.380304556007e-16
    22   -5.130547153759e-16
Sym=X
Ene= 0.025475
Spin=Alpha
Occup=0
     1   -4.236208671125e-02
     2    2.258697451368e-01
     3   -2.624866286086e-11
     4   -5.285122886851e-13
     5    3.375090171761e-11
     6   -4.989396199732e-01
     7    2.280832414336e-11
     8    1.020962852886e-12
     9   -2.738235414866e-11
    10   -2.641594454359e+00
    11    1.377443553270e-10
    12    3.554643872922e-12
    13   -1.744119589910e-10
    14    2.426034260853e+00
    15   -1.390734799301e-10
    16   -3.851027590243e-12
    17    1.752003736066e-10
    18   -1.212909633841e-11
    19   -1.110223024625e-16
    20    9.020562075079e-17
    21   -2.334306069973e-12
    22    1.110223024625e-16
Sym=6a
Ene= 0.049495
Spin=Alpha
Occup=0
     1   -6.717374850020e-12
     2    1.396613059604e-11
     3    3.068383329537e-12
     4   -4.663597660175e-13
     5   -3.283794334932e-01
     6    2.154911480375e-11
     7   -1.502529795461e-11
     8    4.331038444007e-12
     9    2.240122280053e-01
    10   -1.759809523398e-10
    11   -1.174716574015e-11
    12    3.770756168246e-12
    13    1.976835715740e+00
    14    1.018347020712e-10
    15    3.893780914019e-11
    16   -9.664562986705e-12
    17   -1.708308796044e+00
    18    2.469541059901e-16
    19   -4.327197646208e-16
    20   -6.203635694955e-17
    21    3.814526440340e-19
    22   -1.108394441048e-17
