******************************************************
*** WorkDir and CurrDir are the same, not cleaned! ***
******************************************************
   This run of MOLCAS is using the pymolcas driver

                             OPE
                             OPE          NMOL  CASOP  ENMOLC A   SO
                 OPE        NMOLC        AS  OP EN  MO LC     AS  OP
                OPENM       OL CA        SO  PE NM  OL CA     SOP EN
                OP EN      MO   LC       AS  OP ENMOL  CASO   PENMOL
                OP  EN     MO   LC       AS  OP EN     MO     LC ASO
               OP   E  NMOL  C  AS       OP  EN MO     LC     AS  OP
               OP  E   NMO   LC AS        OPEN  MO     LCASOP EN   M
               O  PEN   MO  LCA  SO
            OPE   NMO   L   CAS    OP
        OPENMOL  CASOP     ENMOL   CASOPE
     OPENMOLCA   SOPENMOLCASOPEN   MOLCASOPE
    OPENMOLCAS   OP           EN   MOL    CAS
    OPENMOLCAS       OP  ENM        O     LCA
    OPENMOLCAS    OPEN  MOLCASO     P  E  NMO
    OPENMOLCAS     OP               E  N  MOL
    OPENMOLCA   SO           PENM   O  L  CAS    OPEN    MO    LCAS
    OPENMOLCA   SOP           ENM   O  L  CAS   OP  EN  MOLC  AS   O
    OPENMOLCA   SOPE           NM      O  LCA   S      OP  EN MO
    OPENMOLC                AS         O  PEN   M      OL  CA  SOPE
    OPENMO        LCASOPE  NMOL        C  ASO   P      ENMOLC     AS
    OPE     NMO      LCA  SO     P     E   NM   OL  CA SO  PE N   MO
          OPENMOLCA            SOPE   NMO        LCAS  O    P  ENMO
     OPENMOLCASOPENMOLCASOPENMOLCASOPENMOLCA
        OPENMOLCASOPENMOLCASOPENMOLCASOPE
            OPENMOLCASOPENMOLCASOPENM
               OPENMOLCASOPENMOLCA        version: 19.11
                   OPENMOLCASO
                       OPE                tag: 1162-ga18ab34

 OpenMolcas is free software; you can redistribute it and/or modify it
 under the terms of the GNU Lesser General Public License version 2.1.
 OpenMolcas is distributed in the hope that it will be useful, but it
 is provided "as is" and without any express or implied warranties.
 For more details see the full text of the license in the file
 LICENSE or in <http://www.gnu.org/licenses/>.

                 Copyright (C) The OpenMolcas Authors
           For the author list and the recommended citation,
                   consult the file CONTRIBUTORS.md

           *************************************************
           * pymolcas version py2.08                       *
           *   build bed633bbe89b7744c23cdbfc3f64969c      *
           *   (after the EMIL interpreter by V. Veryazov) *
           *************************************************

configuration info
------------------
C Compiler ID: GNU
C flags: -std=gnu99 -fopenmp
Fortran Compiler ID: GNU
Fortran flags: -fno-aggressive-loop-optimizations -cpp -fdefault-integer-8 -fopenmp
Definitions: _MOLCAS_;_I8_;_LINUX_;_MKL_;_DMRG_
Parallel: OFF (GA=OFF)


   ----------------------------------------------------------------------
  |
  |             Project: cart
  |      Submitted from: /scratch/gayverjr/cart.3419560321
  |        Scratch area: /scratch/gayverjr/cart.3419560321
  |     Save outputs to: /home/gayverjr/OpenCAP/molcas_example
  |              Molcas: /home/qcsoftware/OpenMolcas/qcmaquis_build/build
  |
  | Scratch area is NOT empty
  |
  |      MOLCAS_DRIVER = /home/qcsoftware/bin/pymolcas
  | MOLCAS_NEW_WORKDIR = YES
  |      MOLCAS_NPROCS = 16
  |      MOLCAS_SOURCE = /home/qcsoftware/OpenMolcas/Molcas_src
  |   MOLCAS_STRUCTURE = 0
  |
   ----------------------------------------------------------------------

++ ---------   Input file   ---------

&GATEWAY
Expert
Basis set
 N.aug-cc-pvtz
 Cartesian all
 N1  0.0  0.0  1.039
 N2  0.0  0.0  -1.039
End of Basis
Basis set
X ..... / inline
   0.00   2
    3    3
               0.0288
               0.0144
               0.0072
      1.00000000             0.00000000             0.00000000
      0.00000000             1.00000000             0.00000000
      0.00000000             0.00000000             1.00000000
     3    3
               0.02455
               0.012275
               0.0061375
     1.00000000             0.00000000             0.00000000
     0.00000000             1.00000000             0.00000000
     0.00000000             0.00000000             1.00000000
     3    3
               0.0755
               0.03775
               0.018875
      1.000000E+00           0.000000E+00           0.000000E+00           0.00000000
      0.000000E+00           1.000000E+00           0.000000E+00           0.00000000
      0.000000E+00           0.000000E+00           1.000000E+00           0.00000000
Cartesian all
X1  0.000  0.000  0.000
End of basis

&SEWARD

&SCF

&MBPT2
PRPT

>>> COPY /home/gayverjr/OpenCAP/molcas_example/$Project.MP2Orb INPORB

&RASSCF
LUMORB
Title = cas 5,13 test
Charge = 0
Ras2=4
NActEl=4,0,0

>>> COPY /home/gayverjr/OpenCAP/molcas_example/$Project.RasOrb INPORB

&RASSCF
LUMORB
Charge = -1
SPIN = 2
Ras2=10
NActEl=5,0,0
CIROOT= 10 10 1
Alter = 6
1 10 18
1 11 19
1 12 28
1 13 29
1 14 39
1 15 40

&CASPT2
MAXIter = 50
MULtistate = all

&RASSI
TRD1

>>> COPY /home/gayverjr/OpenCAP/molcas_example/$Project.RasOrb INPORB

&RASSCF
LUMORB
Inactive = 5
Spin = 1
Charge = 0
Ras2=10
NActEl=4,0,0
CIROOT= 10 10 1
CIONLY
Alter = 6
1 10 18
1 11 19
1 12 28
1 13 29
1 14 39
1 15 40

&CASPT2
MAXIter = 100
MULtistate = all

-- ----------------------------------

--- Start Module: gateway at Tue Aug 11 00:03:06 2020 ---

()()()()()()()()()()()()()()()()()()()()()()()()()()()()()()()()()()()()()()()()()()()()()()()()()()

                                              &GATEWAY

                                   only a single process is used
                       available to each process: 20 GB of memory, 16 threads
                                             pid: 8141
()()()()()()()()()()()()()()()()()()()()()()()()()()()()()()()()()()()()()()()()()()()()()()()()()()

 ###############################################################################
 ###############################################################################
 ###                                                                         ###
 ###                                                                         ###
 ###    WARNING:  EXPERT option is ON!                                       ###
 ###                                                                         ###
 ###                                                                         ###
 ###############################################################################
 ###############################################################################

++    Symmetry information:
      ---------------------

                    Character Table for C1 

                             E  
                    a        1  x, y, xy, Rz, z, xz, Ry, yz, Rx, I
--


++    Basis set information:
      ----------------------


      Basis set label: N.AUG-CC-PVTZ.........

      Electronic valence basis set:
      ------------------
      Associated Effective Charge   7.000000 au
      Associated Actual Charge      7.000000 au
      Nuclear Model: Point charge

      Shell  nPrim  nBasis  Cartesian Spherical Contaminant
         s      11       5        X                  
         p       6       4        X                  
         d       3       3        X                  
         f       2       2        X                  


      Basis set label: X...............................................................................

      Electronic valence basis set:
      ------------------
      Associated Effective Charge   0.000000 au
      Associated Actual Charge      0.000000 au
      Nuclear Model: Point charge

      Shell  nPrim  nBasis  Cartesian Spherical Contaminant
         s       3       3        X                  
         p       3       3        X                  
         d       3       3        X                  
--


++    Molecular structure info:
      -------------------------

                    ************************************************ 
                    **** Cartesian Coordinates / Bohr, Angstrom **** 
                    ************************************************ 

     Center  Label                x              y              z                     x              y              z
        1      N1               0.000000       0.000000       1.039000              0.000000       0.000000       0.549815
        2      N2               0.000000       0.000000      -1.039000              0.000000       0.000000      -0.549815
        3      X1               0.000000       0.000000       0.000000              0.000000       0.000000       0.000000

                    *************************************** 
                    *    InterNuclear Distances / Bohr    * 
                    *************************************** 

               1 N1            2 N2            3 X1    
    1 N1       0.000000
    2 N2       2.078000        0.000000
    3 X1       1.039000        1.039000        0.000000

                    ******************************************* 
                    *    InterNuclear Distances / Angstrom    * 
                    ******************************************* 

               1 N1            2 N2            3 X1    
    1 N1       0.000000
    2 N2       1.099630        0.000000
    3 X1       0.549815        0.549815        0.000000

                    ************************************** 
                    *    Valence Bond Angles / Degree    * 
                    ************************************** 
                          Atom centers                 Phi
                      2 N2       1 N1       3 X1         0.00
                      1 N1       2 N2       3 X1         0.00
                      1 N1       3 X1       2 N2       180.00
--


            Nuclear Potential Energy             23.58036574 au

--- Stop Module: gateway at Tue Aug 11 00:03:07 2020 /rc=_RC_ALL_IS_WELL_ ---
*** files: xmldump
    saved to directory /home/gayverjr/OpenCAP/molcas_example
--- Module gateway spent 1 second ---

--- Start Module: seward at Tue Aug 11 00:03:07 2020 ---

()()()()()()()()()()()()()()()()()()()()()()()()()()()()()()()()()()()()()()()()()()()()()()()()()()

                                              &SEWARD

                                   only a single process is used
                       available to each process: 20 GB of memory, 16 threads
                                             pid: 8162
()()()()()()()()()()()()()()()()()()()()()()()()()()()()()()()()()()()()()()()()()()()()()()()()()()

               SEWARD will generate:
                  Multipole Moment integrals up to order  2
                  Kinetic Energy integrals
                  Nuclear Attraction integrals (point charge)
                  One-Electron Hamiltonian integrals
                  Velocity integrals
                  Orbital angular momentum around ( 0.0000  0.0000  0.0000 )
                  Velocity quadrupole around ( 0.0000  0.0000  0.0000 )
                  Two-Electron Repulsion integrals

                   Integrals are discarded if absolute value <: 0.10E-13
                   Integral cutoff threshold is set to       <: 0.10E-15

            Nuclear Potential Energy             23.58036574 au


      Basis set specifications :
      Symmetry species         a  
      Basis functions          140


  Input file to MOLDEN was generated!

--- Stop Module: seward at Tue Aug 11 00:03:15 2020 /rc=_RC_ALL_IS_WELL_ ---
*** files: cart.GssOrb cart.guessorb.h5 cart.guessorb.molden xmldump
    saved to directory /home/gayverjr/OpenCAP/molcas_example
--- Module seward spent 7 seconds ---

*** symbolic link created: INPORB -> cart.GssOrb
--- Start Module: scf at Tue Aug 11 00:03:15 2020 ---

()()()()()()()()()()()()()()()()()()()()()()()()()()()()()()()()()()()()()()()()()()()()()()()()()()

                                                &SCF

                                   only a single process is used
                       available to each process: 20 GB of memory, 16 threads
                                             pid: 8242
()()()()()()()()()()()()()()()()()()()()()()()()()()()()()()()()()()()()()()()()()()()()()()()()()()

++    Input section:
      --------------

      Header of the integral files:
      
       Integrals generated by seward 4.2.0  , Tue Aug 11 00:03:08 2020


      Cartesian coordinates in Angstrom:
      -----------------------------------------------------
      No.  Label        X            Y            Z        
      -----------------------------------------------------
       1   N1         0.00000000   0.00000000   0.54981512
       2   N2         0.00000000   0.00000000  -0.54981512
       3   X1         0.00000000   0.00000000   0.00000000
      -----------------------------------------------------
      Nuclear repulsion energy =   23.58036574
--

++    Orbital specifications:
      -----------------------

      Symmetry species               1
                                     a
      Frozen orbitals                0
      Occupied orbitals              7
      Secondary orbitals           133
      Deleted orbitals               0
      Total number of orbitals     140
      Number of basis functions    140
--

      Molecular charge                           0.000

++    Optimization specifications:
      ----------------------------

      SCF Algorithm: Conventional
      Minimized density differences are used
      Number of density matrices in core                5
      Maximum number of NDDO SCF iterations           400
      Maximum number of HF SCF iterations             400
      Threshold for SCF energy change            0.10E-08
      Threshold for density matrix               0.10E-03
      Threshold for Fock matrix                  0.15E-03
      Threshold for linear dependence            0.10E-08
      Threshold at which DIIS is turned on       0.15E+00
      Threshold at which QNR/C2DIIS is turned on 0.75E-01
      Threshold for Norm(delta) (QNR/C2DIIS)     0.20E-04
      DIIS extrapolation of the SCF procedure
      All orbitals punched on: SCFORB
--

      Input vectors read from INPORB
      Orbital file label: *Guess orbitals


++ Convergence information
                                   SCF        iterations: Energy and convergence statistics

Iter     Tot. SCF        One-elec.       Two-elec.     Energy      Max Dij or  Max Fij      DNorm      TNorm      AccCon     Time
         Energy          Energy          Energy        Change      Delta Norm                                                in Sec.
   1  -108.707230664  -191.849085778    59.561489378   0.00E+00    0.14E+00*   0.18E+00*    0.53E+01   0.47E+03   None         4.
   2  -108.970304419  -194.981770271    62.431100115  -0.26E+00*   0.36E-01*   0.36E-01*    0.81E+02   0.48E+03   EDIIS        4.
   3  -108.984518640  -193.981042476    61.416158099  -0.14E-01*   0.91E-02*   0.90E-02*    0.40E+01   0.48E+03   EDIIS        4.
   4  -108.985534680  -194.239600292    61.673699876  -0.10E-02*   0.35E-02*   0.18E-02*    0.20E+01   0.48E+03   c2DIIS       4.
   5  -108.985616526  -194.177041036    61.611058773  -0.82E-04*   0.14E-02*   0.60E-03*    0.94E-01   0.48E+03   QNRc2DIIS    5.
   6  -108.985622566  -194.177870614    61.611882312  -0.60E-05*   0.68E-03*   0.20E-03*    0.67E-02   0.48E+03   QNRc2DIIS    4.
   7  -108.985623269  -194.176272870    61.610283865  -0.70E-06*   0.29E-04*   0.17E-04     0.11E-02   0.48E+03   QNRc2DIIS    4.
   8  -108.985623272  -194.176690069    61.610701061  -0.32E-08*   0.58E-05    0.27E-05     0.19E-03   0.48E+03   QNRc2DIIS    4.
   9  -108.985623272  -194.176682263    61.610693254  -0.88E-10    0.37E-06    0.92E-07     0.39E-02   0.48E+03   QNRc2DIIS    4.

       Convergence after  9 Macro Iterations
--

 *****************************************************************************************************************************
 *                                                                                                                           *
 *                                             SCF/KS-DFT Program, Final results                                             *
 *                                                                                                                           *
 *                                                                                                                           *
 *                                                                                                                           *
 *                                                       Final Results                                                       *
 *                                                                                                                           *
 *****************************************************************************************************************************

::    Total SCF energy                               -108.9856232722
      One-electron energy                            -194.1766822629
      Two-electron energy                              61.6106932544
      Nuclear repulsion energy                         23.5803657363
      Kinetic energy (interpolated)                   108.7415294580
      Virial theorem                                    1.0022447157
      Total spin, S(S+1)                                0.0000000000
      Total spin, S                                     0.0000000000
      Max non-diagonal density matrix element           0.0000002189
      Max non-diagonal Fock matrix element              0.0000000368


      All orbitals with orbital energies smaller than  E(LUMO)+0.5 are printed

++    Molecular orbitals:
      -------------------

      Title: SCF orbitals

      Molecular orbitals for symmetry species 1: a  

          Orbital            1         2         3         4         5         6         7         8         9        10    
          Energy          -15.6848  -15.6813   -1.4706   -0.7800   -0.6342   -0.6133   -0.6133    0.0089    0.0118    0.0118
          Occ. No.          2.0000    2.0000    2.0000    2.0000    2.0000    2.0000    2.0000    0.0000    0.0000    0.0000

        1 N1     1s         0.7051   -0.7050   -0.0149   -0.0003   -0.0034   -0.0000   -0.0000    0.0011    0.0000    0.0000
        2 N1     1s        -0.0061    0.0081    0.6389   -0.6432   -0.2385   -0.0000   -0.0000    0.0246    0.0000    0.0000
        3 N1     1s         0.0078   -0.0071    0.0065    0.0030    0.0117    0.0000    0.0000   -0.0034    0.0000   -0.0000
        4 N1     1s        -0.0090    0.0848    0.6141   -0.2325    0.4285   -0.0000   -0.0000    0.2927    0.0000    0.0000
        5 N1     1s        -0.1568    0.0151   -0.5196   -0.1287   -0.5296   -0.0000   -0.0000   -2.7710   -0.0000   -0.0000
        6 N1     2px        0.0000    0.0000    0.0000    0.0000    0.0000    0.6178   -0.1903    0.0000   -0.0003   -0.0140
        7 N1     2px       -0.0000   -0.0000    0.0000   -0.0000    0.0000   -0.0412    0.0127   -0.0000   -0.0000   -0.0012
        8 N1     2px       -0.0000   -0.0000    0.0000    0.0000    0.0000   -0.0804    0.0248   -0.0000    0.0012    0.0528
        9 N1     2px        0.0000   -0.0000   -0.0000    0.0000   -0.0000    0.0167   -0.0051   -0.0000   -0.0029   -0.1279
       10 N1     2py       -0.0000   -0.0000   -0.0000   -0.0000    0.0000    0.1903    0.6178    0.0000   -0.0140    0.0003
       11 N1     2py       -0.0000   -0.0000    0.0000    0.0000    0.0000   -0.0127   -0.0412   -0.0000   -0.0012    0.0000
       12 N1     2py       -0.0000   -0.0000    0.0000    0.0000    0.0000   -0.0248   -0.0804   -0.0000    0.0528   -0.0012
       13 N1     2py        0.0000   -0.0000   -0.0000    0.0000   -0.0000    0.0051    0.0167   -0.0000   -0.1279    0.0029
       14 N1     2pz       -0.0070    0.0061   -0.3464   -0.3299   -0.7055   -0.0000   -0.0000    0.0218    0.0000    0.0000
       15 N1     2pz        0.0068   -0.0051    0.0717    0.0246    0.0763   -0.0000   -0.0000   -0.0084   -0.0000   -0.0000
       16 N1     2pz        0.0077   -0.0482   -0.0450    0.1575    0.0109    0.0000    0.0000    0.0699    0.0000   -0.0000
       17 N1     2pz        0.0271   -0.0043    0.2569    0.0174    0.1706    0.0000    0.0000    1.5173    0.0000   -0.0000
       18 N1     d200       0.0010   -0.0010   -0.0035   -0.0012   -0.0036   -0.0000   -0.0000   -0.0003    0.0000   -0.0000
       19 N1     d200       0.0047   -0.0043    0.0023    0.0025    0.0033    0.0000    0.0000   -0.0032    0.0000   -0.0000
       20 N1     d200       0.0051    0.0006    0.1337    0.0039    0.1079   -0.0000   -0.0000    0.0344    0.0000    0.0000
       21 N1     d110       0.0000   -0.0000    0.0000   -0.0000   -0.0000    0.0000   -0.0000   -0.0000    0.0000   -0.0000
       22 N1     d110       0.0000   -0.0000    0.0000   -0.0000   -0.0000    0.0000    0.0000    0.0000    0.0000    0.0000
       23 N1     d110      -0.0000    0.0000    0.0000   -0.0000    0.0000   -0.0000   -0.0000    0.0000    0.0000    0.0000
       24 N1     d101      -0.0000   -0.0000   -0.0000   -0.0000    0.0000   -0.0192    0.0059   -0.0000    0.0000    0.0005
       25 N1     d101      -0.0000   -0.0000   -0.0000    0.0000   -0.0000   -0.0347    0.0107   -0.0000    0.0000    0.0003
       26 N1     d101      -0.0000    0.0000    0.0000    0.0000    0.0000   -0.0068    0.0021   -0.0000    0.0000    0.0016
       27 N1     d020       0.0010   -0.0010   -0.0035   -0.0012   -0.0036   -0.0000   -0.0000   -0.0003    0.0000   -0.0000
       28 N1     d020       0.0047   -0.0043    0.0023    0.0025    0.0033    0.0000    0.0000   -0.0032    0.0000   -0.0000
       29 N1     d020       0.0051    0.0006    0.1337    0.0039    0.1079   -0.0000   -0.0000    0.0344    0.0000    0.0000
       30 N1     d011       0.0000    0.0000    0.0000    0.0000   -0.0000   -0.0059   -0.0192   -0.0000    0.0005   -0.0000
       31 N1     d011       0.0000   -0.0000   -0.0000    0.0000   -0.0000   -0.0107   -0.0347    0.0000    0.0003   -0.0000
       32 N1     d011       0.0000    0.0000    0.0000    0.0000    0.0000   -0.0021   -0.0068    0.0000    0.0016   -0.0000
       33 N1     d002       0.0015   -0.0015    0.0137    0.0015    0.0116    0.0000    0.0000   -0.0006   -0.0000   -0.0000
       34 N1     d002       0.0043   -0.0041    0.0167    0.0068    0.0203   -0.0000    0.0000   -0.0028    0.0000   -0.0000
       35 N1     d002       0.0042    0.0059    0.1230   -0.0080    0.1076   -0.0000   -0.0000    0.0162    0.0000    0.0000
       36 N1     f300       0.0000    0.0000   -0.0000   -0.0000   -0.0000    0.0026   -0.0008    0.0000   -0.0000   -0.0007
       37 N1     f300       0.0000    0.0000   -0.0000   -0.0000   -0.0000    0.0059   -0.0018    0.0000   -0.0001   -0.0047
       38 N1     f210       0.0000    0.0000   -0.0000   -0.0000   -0.0000    0.0008    0.0026    0.0000   -0.0007    0.0000
       39 N1     f210       0.0000    0.0000   -0.0000   -0.0000   -0.0000    0.0018    0.0059    0.0000   -0.0047    0.0001
       40 N1     f201      -0.0005    0.0005    0.0012   -0.0022    0.0001   -0.0000   -0.0000   -0.0001    0.0000    0.0000
       41 N1     f201      -0.0006    0.0022    0.0076   -0.0068    0.0017   -0.0000   -0.0000   -0.0035    0.0000    0.0000
       42 N1     f120       0.0000    0.0000   -0.0000    0.0000   -0.0000    0.0026   -0.0008    0.0000   -0.0000   -0.0007
       43 N1     f120       0.0000    0.0000   -0.0000   -0.0000   -0.0000    0.0059   -0.0018    0.0000   -0.0001   -0.0047
       44 N1     f111      -0.0000    0.0000    0.0000    0.0000    0.0000    0.0000    0.0000   -0.0000   -0.0000    0.0000
       45 N1     f111      -0.0000    0.0000   -0.0000    0.0000    0.0000   -0.0000   -0.0000   -0.0000   -0.0000   -0.0000
       46 N1     f102       0.0000    0.0000   -0.0000   -0.0000   -0.0000    0.0088   -0.0027    0.0000   -0.0000   -0.0009
       47 N1     f102       0.0000    0.0000   -0.0000   -0.0000   -0.0000    0.0065   -0.0020    0.0000   -0.0001   -0.0044
       48 N1     f030       0.0000    0.0000   -0.0000   -0.0000   -0.0000    0.0008    0.0026    0.0000   -0.0007    0.0000
       49 N1     f030       0.0000    0.0000   -0.0000   -0.0000   -0.0000    0.0018    0.0059    0.0000   -0.0047    0.0001
       50 N1     f021      -0.0005    0.0005    0.0012   -0.0022    0.0001   -0.0000   -0.0000   -0.0001    0.0000    0.0000
       51 N1     f021      -0.0006    0.0022    0.0076   -0.0068    0.0017   -0.0000   -0.0000   -0.0035    0.0000    0.0000
       52 N1     f012       0.0000    0.0000   -0.0000   -0.0000   -0.0000    0.0027    0.0088    0.0000   -0.0009    0.0000
       53 N1     f012       0.0000    0.0000   -0.0000   -0.0000   -0.0000    0.0020    0.0065   -0.0000   -0.0044    0.0001
       54 N1     f003      -0.0004    0.0008   -0.0030   -0.0017   -0.0036   -0.0000   -0.0000   -0.0001    0.0000    0.0000
       55 N1     f003      -0.0005    0.0018    0.0096   -0.0062    0.0014   -0.0000   -0.0000   -0.0027    0.0000    0.0000
       56 N2     1s         0.7051    0.7050   -0.0149    0.0003   -0.0034   -0.0000    0.0000    0.0011    0.0000    0.0000
       57 N2     1s        -0.0061   -0.0081    0.6389    0.6432   -0.2385    0.0000    0.0000    0.0246    0.0000    0.0000
       58 N2     1s         0.0078    0.0071    0.0065   -0.0030    0.0117    0.0000    0.0000   -0.0034   -0.0000   -0.0000
       59 N2     1s        -0.0090   -0.0848    0.6141    0.2325    0.4285   -0.0000   -0.0000    0.2927    0.0000    0.0000
       60 N2     1s        -0.1568   -0.0151   -0.5196    0.1287   -0.5296   -0.0000   -0.0000   -2.7710    0.0000   -0.0000
       61 N2     2px        0.0000    0.0000    0.0000    0.0000   -0.0000    0.6178   -0.1903    0.0000   -0.0003   -0.0140
       62 N2     2px       -0.0000    0.0000    0.0000    0.0000    0.0000   -0.0412    0.0127   -0.0000   -0.0000   -0.0012
       63 N2     2px       -0.0000    0.0000    0.0000   -0.0000    0.0000   -0.0804    0.0248    0.0000    0.0012    0.0528
       64 N2     2px        0.0000    0.0000   -0.0000   -0.0000   -0.0000    0.0167   -0.0051    0.0000   -0.0029   -0.1279
       65 N2     2py       -0.0000   -0.0000   -0.0000   -0.0000    0.0000    0.1903    0.6178   -0.0000   -0.0140    0.0003
       66 N2     2py       -0.0000    0.0000    0.0000    0.0000    0.0000   -0.0127   -0.0412    0.0000   -0.0012    0.0000
       67 N2     2py       -0.0000    0.0000    0.0000    0.0000    0.0000   -0.0248   -0.0804    0.0000    0.0528   -0.0012
       68 N2     2py        0.0000    0.0000   -0.0000   -0.0000   -0.0000    0.0051    0.0167    0.0000   -0.1279    0.0029
       69 N2     2pz        0.0070    0.0061    0.3464   -0.3299    0.7055   -0.0000   -0.0000   -0.0218   -0.0000   -0.0000
       70 N2     2pz       -0.0068   -0.0051   -0.0717    0.0246   -0.0763    0.0000    0.0000    0.0084    0.0000    0.0000
       71 N2     2pz       -0.0077   -0.0482    0.0450    0.1575   -0.0109   -0.0000   -0.0000   -0.0699    0.0000    0.0000
       72 N2     2pz       -0.0271   -0.0043   -0.2569    0.0174   -0.1706   -0.0000   -0.0000   -1.5173   -0.0000    0.0000
       73 N2     d200       0.0010    0.0010   -0.0035    0.0012   -0.0036   -0.0000    0.0000   -0.0003   -0.0000   -0.0000
       74 N2     d200       0.0047    0.0043    0.0023   -0.0025    0.0033    0.0000    0.0000   -0.0032   -0.0000    0.0000
       75 N2     d200       0.0051   -0.0006    0.1337   -0.0039    0.1079   -0.0000   -0.0000    0.0344    0.0000    0.0000
       76 N2     d110      -0.0000   -0.0000   -0.0000   -0.0000    0.0000   -0.0000   -0.0000   -0.0000   -0.0000   -0.0000
       77 N2     d110      -0.0000   -0.0000   -0.0000   -0.0000    0.0000    0.0000   -0.0000   -0.0000   -0.0000   -0.0000
       78 N2     d110      -0.0000    0.0000   -0.0000   -0.0000    0.0000   -0.0000   -0.0000    0.0000   -0.0000   -0.0000
       79 N2     d101       0.0000    0.0000    0.0000   -0.0000   -0.0000    0.0192   -0.0059   -0.0000   -0.0000   -0.0005
       80 N2     d101       0.0000   -0.0000    0.0000    0.0000    0.0000    0.0347   -0.0107   -0.0000   -0.0000   -0.0003
       81 N2     d101       0.0000    0.0000   -0.0000    0.0000   -0.0000    0.0068   -0.0021   -0.0000   -0.0000   -0.0016
       82 N2     d020       0.0010    0.0010   -0.0035    0.0012   -0.0036    0.0000   -0.0000   -0.0003   -0.0000    0.0000
       83 N2     d020       0.0047    0.0043    0.0023   -0.0025    0.0033    0.0000    0.0000   -0.0032   -0.0000    0.0000
       84 N2     d020       0.0051   -0.0006    0.1337   -0.0039    0.1079   -0.0000   -0.0000    0.0344    0.0000    0.0000
       85 N2     d011      -0.0000   -0.0000   -0.0000   -0.0000    0.0000    0.0059    0.0192   -0.0000   -0.0005    0.0000
       86 N2     d011      -0.0000   -0.0000    0.0000   -0.0000    0.0000    0.0107    0.0347    0.0000   -0.0003    0.0000
       87 N2     d011      -0.0000    0.0000   -0.0000    0.0000   -0.0000    0.0021    0.0068    0.0000   -0.0016    0.0000
       88 N2     d002       0.0015    0.0015    0.0137   -0.0015    0.0116    0.0000    0.0000   -0.0006   -0.0000   -0.0000
       89 N2     d002       0.0043    0.0041    0.0167   -0.0068    0.0203   -0.0000   -0.0000   -0.0028   -0.0000    0.0000
       90 N2     d002       0.0042   -0.0059    0.1230    0.0080    0.1076   -0.0000   -0.0000    0.0162    0.0000    0.0000
       91 N2     f300       0.0000   -0.0000   -0.0000    0.0000   -0.0000    0.0026   -0.0008    0.0000   -0.0000   -0.0007
       92 N2     f300       0.0000   -0.0000   -0.0000    0.0000   -0.0000    0.0059   -0.0018   -0.0000   -0.0001   -0.0047
       93 N2     f210       0.0000   -0.0000   -0.0000   -0.0000   -0.0000    0.0008    0.0026   -0.0000   -0.0007    0.0000
       94 N2     f210       0.0000   -0.0000   -0.0000    0.0000   -0.0000    0.0018    0.0059   -0.0000   -0.0047    0.0001
       95 N2     f201       0.0005    0.0005   -0.0012   -0.0022   -0.0001    0.0000    0.0000    0.0001   -0.0000   -0.0000
       96 N2     f201       0.0006    0.0022   -0.0076   -0.0068   -0.0017    0.0000    0.0000    0.0035   -0.0000   -0.0000
       97 N2     f120       0.0000   -0.0000   -0.0000   -0.0000   -0.0000    0.0026   -0.0008    0.0000   -0.0000   -0.0007
       98 N2     f120       0.0000   -0.0000   -0.0000    0.0000   -0.0000    0.0059   -0.0018   -0.0000   -0.0001   -0.0047
       99 N2     f111      -0.0000   -0.0000    0.0000   -0.0000    0.0000   -0.0000   -0.0000   -0.0000    0.0000   -0.0000
      100 N2     f111      -0.0000    0.0000   -0.0000   -0.0000    0.0000    0.0000    0.0000   -0.0000   -0.0000   -0.0000
      101 N2     f102       0.0000   -0.0000   -0.0000    0.0000   -0.0000    0.0088   -0.0027    0.0000   -0.0000   -0.0009
      102 N2     f102       0.0000   -0.0000   -0.0000    0.0000   -0.0000    0.0065   -0.0020   -0.0000   -0.0001   -0.0044
      103 N2     f030       0.0000   -0.0000   -0.0000   -0.0000   -0.0000    0.0008    0.0026   -0.0000   -0.0007    0.0000
      104 N2     f030       0.0000   -0.0000   -0.0000   -0.0000   -0.0000    0.0018    0.0059   -0.0000   -0.0047    0.0001
      105 N2     f021       0.0005    0.0005   -0.0012   -0.0022   -0.0001    0.0000    0.0000    0.0001   -0.0000   -0.0000
      106 N2     f021       0.0006    0.0022   -0.0076   -0.0068   -0.0017    0.0000    0.0000    0.0035   -0.0000   -0.0000
      107 N2     f012       0.0000   -0.0000   -0.0000   -0.0000   -0.0000    0.0027    0.0088   -0.0000   -0.0009    0.0000
      108 N2     f012       0.0000   -0.0000   -0.0000    0.0000   -0.0000    0.0020    0.0065   -0.0000   -0.0044    0.0001
      109 N2     f003       0.0004    0.0008    0.0030   -0.0017    0.0036    0.0000    0.0000    0.0001   -0.0000   -0.0000
      110 N2     f003       0.0005    0.0018   -0.0096   -0.0062   -0.0014    0.0000    0.0000    0.0027   -0.0000   -0.0000
      111 X1     1s         0.3924    0.0000   -3.4633    0.0000   -2.2416    0.0000    0.0000    4.7560   -0.0000   -0.0000
      112 X1     1s         0.0823    0.0000   -1.3368    0.0000   -1.3950    0.0000    0.0000    8.9677   -0.0000    0.0000
      113 X1     1s        -0.0005   -0.0000    0.0231   -0.0000    0.0310   -0.0000   -0.0000   -2.8497   -0.0000   -0.0000
      114 X1     2px       -0.0000   -0.0000    0.0000    0.0000    0.0000   -0.0139    0.0043   -0.0000    0.0162    0.7006
      115 X1     2px        0.0000    0.0000   -0.0000   -0.0000   -0.0000    0.0059   -0.0018    0.0000   -0.0323   -1.4015
      116 X1     2px       -0.0000   -0.0000    0.0000    0.0000    0.0000   -0.0016    0.0005   -0.0000    0.0419    1.8166
      117 X1     2py       -0.0000    0.0000    0.0000    0.0000    0.0000   -0.0043   -0.0139    0.0000    0.7006   -0.0162
      118 X1     2py        0.0000   -0.0000   -0.0000   -0.0000   -0.0000    0.0018    0.0059   -0.0000   -1.4015    0.0323
      119 X1     2py       -0.0000    0.0000    0.0000    0.0000    0.0000   -0.0005   -0.0016    0.0000    1.8166   -0.0419
      120 X1     2pz       -0.0000    0.0018   -0.0000    0.0014   -0.0000    0.0000    0.0000    0.0000   -0.0000    0.0000
      121 X1     2pz        0.0000   -0.0006    0.0000   -0.0019    0.0000   -0.0000   -0.0000   -0.0000    0.0000   -0.0000
      122 X1     2pz       -0.0000    0.0001   -0.0000    0.0006   -0.0000    0.0000    0.0000    0.0000   -0.0000    0.0000
      123 X1     d200      -0.0016   -0.0000    0.5340   -0.0000    0.4083   -0.0000   -0.0000    0.0664    0.0000    0.0000
      124 X1     d200      -0.0518   -0.0000    0.5329   -0.0000    0.3939   -0.0000   -0.0000   -1.2728    0.0000   -0.0000
      125 X1     d200      -0.0116   -0.0000    0.1719   -0.0000    0.1723   -0.0000   -0.0000   -0.7203    0.0000   -0.0000
      126 X1     d110       0.0000   -0.0000    0.0000   -0.0000   -0.0000    0.0000    0.0000   -0.0000    0.0000   -0.0000
      127 X1     d110      -0.0000    0.0000   -0.0000    0.0000    0.0000   -0.0000   -0.0000    0.0000   -0.0000   -0.0000
      128 X1     d110       0.0000   -0.0000    0.0000   -0.0000   -0.0000    0.0000    0.0000   -0.0000    0.0000    0.0000
      129 X1     d101       0.0000    0.0000    0.0000   -0.0000    0.0000    0.0000   -0.0000    0.0000    0.0000    0.0000
      130 X1     d101      -0.0000    0.0000    0.0000   -0.0000    0.0000    0.0000   -0.0000    0.0000    0.0000    0.0000
      131 X1     d101       0.0000   -0.0000    0.0000    0.0000   -0.0000   -0.0000    0.0000   -0.0000   -0.0000   -0.0000
      132 X1     d020      -0.0016   -0.0000    0.5340   -0.0000    0.4083   -0.0000   -0.0000    0.0664    0.0000    0.0000
      133 X1     d020      -0.0518   -0.0000    0.5329   -0.0000    0.3939   -0.0000   -0.0000   -1.2728    0.0000   -0.0000
      134 X1     d020      -0.0116   -0.0000    0.1719   -0.0000    0.1723   -0.0000   -0.0000   -0.7203    0.0000   -0.0000
      135 X1     d011      -0.0000    0.0000   -0.0000   -0.0000    0.0000    0.0000    0.0000    0.0000   -0.0000    0.0000
      136 X1     d011      -0.0000    0.0000   -0.0000   -0.0000    0.0000    0.0000    0.0000    0.0000   -0.0000    0.0000
      137 X1     d011       0.0000   -0.0000    0.0000    0.0000   -0.0000   -0.0000   -0.0000   -0.0000    0.0000   -0.0000
      138 X1     d002      -0.0028   -0.0000    0.4319   -0.0000    0.3273   -0.0000   -0.0000   -0.0790    0.0000    0.0000
      139 X1     d002      -0.0555   -0.0000    0.4860   -0.0000    0.3693   -0.0000   -0.0000   -1.7236    0.0000   -0.0000
      140 X1     d002      -0.0115   -0.0000    0.1734   -0.0000    0.1722   -0.0000   -0.0000   -0.6389    0.0000   -0.0000

          Orbital           11        12        13        14        15        16        17        18        19        20    
          Energy            0.0119    0.0403    0.0408    0.0408    0.0410    0.0491    0.0491    0.0499    0.0538    0.0538
          Occ. No.          0.0000    0.0000    0.0000    0.0000    0.0000    0.0000    0.0000    0.0000    0.0000    0.0000

        1 N1     1s         0.0006    0.0014    0.0000    0.0000    0.0008    0.0000    0.0000   -0.0021   -0.0000   -0.0000
        2 N1     1s         0.0117   -0.0431    0.0000    0.0000   -0.0290    0.0000    0.0000   -0.0114   -0.0000   -0.0000
        3 N1     1s         0.0019   -0.0070    0.0000   -0.0000    0.0041    0.0000   -0.0000    0.0135    0.0000    0.0000
        4 N1     1s        -1.3414    1.0642   -0.0000    0.0000   -3.4536    0.0000    0.0000   -1.4699    0.0000   -0.0000
        5 N1     1s        -0.4246   -4.5783    0.0000    0.0000   -0.8637   -0.0000   -0.0000   -8.3950    0.0000   -0.0000
        6 N1     2px        0.0000   -0.0000   -0.0001   -0.0266    0.0000    0.0001   -0.0344   -0.0000    0.0000   -0.0000
        7 N1     2px       -0.0000    0.0000    0.0000    0.0066    0.0000   -0.0001    0.0435    0.0000   -0.0000    0.0000
        8 N1     2px       -0.0000   -0.0000   -0.0006   -0.1324   -0.0000    0.0010   -0.6776    0.0000   -0.0000    0.0000
        9 N1     2px       -0.0000    0.0000    0.0014    0.3088   -0.0000    0.0146   -9.6973   -0.0000   -0.0000   -0.0000
       10 N1     2py        0.0000   -0.0000   -0.0266    0.0001    0.0000   -0.0344   -0.0001   -0.0000   -0.0000   -0.0000
       11 N1     2py        0.0000    0.0000    0.0066   -0.0000   -0.0000    0.0435    0.0001   -0.0000   -0.0000    0.0000
       12 N1     2py        0.0000    0.0000   -0.1324    0.0006   -0.0000   -0.6776   -0.0010    0.0000    0.0000    0.0000
       13 N1     2py        0.0000    0.0000    0.3088   -0.0014   -0.0000   -9.6973   -0.0146   -0.0000    0.0000   -0.0000
       14 N1     2pz        0.0023   -0.0510   -0.0000   -0.0000   -0.0170   -0.0000    0.0000    0.0111    0.0000   -0.0000
       15 N1     2pz       -0.0320   -0.0094   -0.0000    0.0000   -0.0831    0.0000   -0.0000    0.0255   -0.0000   -0.0000
       16 N1     2pz        0.7260    0.1178    0.0000   -0.0000    1.8459   -0.0000   -0.0000   -0.2685   -0.0000    0.0000
       17 N1     2pz        0.4227    3.5867   -0.0000   -0.0000    0.9947    0.0000   -0.0000   -7.7688   -0.0000    0.0000
       18 N1     d200       0.0002   -0.0009    0.0000   -0.0000    0.0001    0.0000   -0.0000    0.0017   -0.0000    0.0006
       19 N1     d200       0.0030   -0.0049    0.0000   -0.0000    0.0068    0.0000   -0.0000    0.0118    0.0000   -0.0059
       20 N1     d200      -0.0627    0.1448    0.0000    0.0000   -0.1644    0.0000   -0.0000   -0.1428   -0.0000    0.0341
       21 N1     d110       0.0000    0.0000   -0.0000   -0.0000   -0.0000   -0.0000   -0.0000   -0.0000   -0.0012   -0.0000
       22 N1     d110      -0.0000   -0.0000    0.0000   -0.0000    0.0000    0.0000    0.0000    0.0000    0.0119    0.0000
       23 N1     d110       0.0000   -0.0000   -0.0000    0.0000   -0.0000    0.0000   -0.0000    0.0000   -0.0682   -0.0000
       24 N1     d101      -0.0000    0.0000    0.0000    0.0011   -0.0000    0.0000   -0.0011    0.0000    0.0000    0.0000
       25 N1     d101      -0.0000   -0.0000    0.0000    0.0043   -0.0000   -0.0000    0.0067    0.0000   -0.0000   -0.0000
       26 N1     d101      -0.0000    0.0000   -0.0000   -0.0031    0.0000   -0.0002    0.1581   -0.0000    0.0000   -0.0000
       27 N1     d020       0.0002   -0.0009    0.0000   -0.0000    0.0001    0.0000   -0.0000    0.0017    0.0000   -0.0006
       28 N1     d020       0.0030   -0.0049    0.0000   -0.0000    0.0068    0.0000   -0.0000    0.0118   -0.0000    0.0059
       29 N1     d020      -0.0627    0.1448    0.0000    0.0000   -0.1644    0.0000   -0.0000   -0.1428    0.0000   -0.0341
       30 N1     d011       0.0000    0.0000    0.0011   -0.0000   -0.0000   -0.0011   -0.0000    0.0000    0.0000   -0.0000
       31 N1     d011      -0.0000   -0.0000    0.0043   -0.0000    0.0000    0.0067    0.0000    0.0000    0.0000   -0.0000
       32 N1     d011      -0.0000   -0.0000   -0.0031    0.0000    0.0000    0.1581    0.0002   -0.0000   -0.0000   -0.0000
       33 N1     d002      -0.0000   -0.0009    0.0000   -0.0000    0.0003    0.0000   -0.0000    0.0008    0.0000    0.0000
       34 N1     d002      -0.0034   -0.0057    0.0000   -0.0000   -0.0061    0.0000    0.0000    0.0166    0.0000    0.0000
       35 N1     d002      -0.1675    0.0943   -0.0000    0.0000   -0.4293    0.0000   -0.0000   -0.0126    0.0000   -0.0000
       36 N1     f300       0.0000   -0.0000    0.0000    0.0015   -0.0000   -0.0000    0.0009   -0.0000    0.0000   -0.0000
       37 N1     f300       0.0000   -0.0000    0.0001    0.0112    0.0000   -0.0000    0.0242   -0.0000    0.0000    0.0000
       38 N1     f210       0.0000   -0.0000    0.0015   -0.0000    0.0000    0.0009    0.0000    0.0000   -0.0000   -0.0000
       39 N1     f210       0.0000   -0.0000    0.0112   -0.0001    0.0000    0.0242    0.0000   -0.0000   -0.0000   -0.0000
       40 N1     f201      -0.0004   -0.0004   -0.0000   -0.0000   -0.0012   -0.0000    0.0000    0.0004    0.0000   -0.0001
       41 N1     f201      -0.0173   -0.0071   -0.0000    0.0000   -0.0442    0.0000   -0.0000    0.0142    0.0000   -0.0002
       42 N1     f120       0.0000   -0.0000    0.0000    0.0015   -0.0000   -0.0000    0.0009   -0.0000    0.0000   -0.0000
       43 N1     f120       0.0000   -0.0000    0.0001    0.0112    0.0000   -0.0000    0.0242   -0.0000    0.0000    0.0000
       44 N1     f111      -0.0000    0.0000    0.0000   -0.0000    0.0000    0.0000    0.0000   -0.0000    0.0001    0.0000
       45 N1     f111       0.0000   -0.0000   -0.0000    0.0000   -0.0000   -0.0000   -0.0000   -0.0000    0.0003    0.0000
       46 N1     f102       0.0000   -0.0000    0.0000    0.0013    0.0000   -0.0000    0.0016   -0.0000    0.0000   -0.0000
       47 N1     f102       0.0000   -0.0000    0.0000    0.0105    0.0000   -0.0000    0.0149   -0.0000    0.0000    0.0000
       48 N1     f030       0.0000   -0.0000    0.0015   -0.0000    0.0000    0.0009    0.0000   -0.0000   -0.0000   -0.0000
       49 N1     f030       0.0000   -0.0000    0.0112   -0.0001    0.0000    0.0242    0.0000   -0.0000   -0.0000   -0.0000
       50 N1     f021      -0.0004   -0.0004   -0.0000   -0.0000   -0.0012   -0.0000    0.0000    0.0004   -0.0000    0.0001
       51 N1     f021      -0.0173   -0.0071   -0.0000    0.0000   -0.0442    0.0000   -0.0000    0.0142   -0.0000    0.0002
       52 N1     f012      -0.0000   -0.0000    0.0013   -0.0000    0.0000    0.0016    0.0000   -0.0000   -0.0000   -0.0000
       53 N1     f012       0.0000    0.0000    0.0105   -0.0000   -0.0000    0.0149    0.0000   -0.0000   -0.0000    0.0000
       54 N1     f003      -0.0004   -0.0006   -0.0000   -0.0000   -0.0010   -0.0000   -0.0000    0.0009    0.0000   -0.0000
       55 N1     f003      -0.0146   -0.0046   -0.0000    0.0000   -0.0378    0.0000   -0.0000    0.0051    0.0000   -0.0000
       56 N2     1s        -0.0006    0.0014    0.0000    0.0000   -0.0008   -0.0000   -0.0000   -0.0021   -0.0000    0.0000
       57 N2     1s        -0.0117   -0.0431    0.0000    0.0000    0.0290   -0.0000   -0.0000   -0.0114   -0.0000    0.0000
       58 N2     1s        -0.0019   -0.0070   -0.0000    0.0000   -0.0041    0.0000    0.0000    0.0135    0.0000    0.0000
       59 N2     1s         1.3414    1.0642    0.0000    0.0000    3.4536   -0.0000   -0.0000   -1.4699    0.0000   -0.0000
       60 N2     1s         0.4246   -4.5783    0.0000    0.0000    0.8637   -0.0000   -0.0000   -8.3950    0.0000   -0.0000
       61 N2     2px       -0.0000   -0.0000   -0.0001   -0.0266    0.0000   -0.0001    0.0344    0.0000    0.0000    0.0000
       62 N2     2px        0.0000    0.0000    0.0000    0.0066   -0.0000    0.0001   -0.0435    0.0000   -0.0000   -0.0000
       63 N2     2px        0.0000    0.0000   -0.0006   -0.1324    0.0000   -0.0010    0.6776   -0.0000    0.0000   -0.0000
       64 N2     2px        0.0000   -0.0000    0.0014    0.3088    0.0000   -0.0146    9.6973    0.0000    0.0000    0.0000
       65 N2     2py        0.0000    0.0000   -0.0266    0.0001   -0.0000    0.0344    0.0001   -0.0000    0.0000    0.0000
       66 N2     2py       -0.0000   -0.0000    0.0066   -0.0000    0.0000   -0.0435   -0.0001    0.0000   -0.0000   -0.0000
       67 N2     2py       -0.0000   -0.0000   -0.1324    0.0006    0.0000    0.6776    0.0010   -0.0000   -0.0000    0.0000
       68 N2     2py       -0.0000   -0.0000    0.3088   -0.0014    0.0000    9.6973    0.0146    0.0000   -0.0000    0.0000
       69 N2     2pz        0.0023    0.0510   -0.0000   -0.0000   -0.0170    0.0000    0.0000   -0.0111   -0.0000    0.0000
       70 N2     2pz       -0.0320    0.0094   -0.0000    0.0000   -0.0831   -0.0000   -0.0000   -0.0255    0.0000    0.0000
       71 N2     2pz        0.7260   -0.1178    0.0000    0.0000    1.8459   -0.0000   -0.0000    0.2685    0.0000   -0.0000
       72 N2     2pz        0.4227   -3.5867    0.0000   -0.0000    0.9947   -0.0000    0.0000    7.7688    0.0000   -0.0000
       73 N2     d200      -0.0002   -0.0009   -0.0000   -0.0000   -0.0001    0.0000    0.0000    0.0017   -0.0000    0.0006
       74 N2     d200      -0.0030   -0.0049   -0.0000    0.0000   -0.0068    0.0000    0.0000    0.0118    0.0000   -0.0059
       75 N2     d200       0.0627    0.1448    0.0000    0.0000    0.1644   -0.0000   -0.0000   -0.1428   -0.0000    0.0341
       76 N2     d110       0.0000    0.0000   -0.0000   -0.0000   -0.0000    0.0000   -0.0000    0.0000   -0.0012   -0.0000
       77 N2     d110       0.0000   -0.0000   -0.0000    0.0000   -0.0000    0.0000   -0.0000   -0.0000    0.0119    0.0000
       78 N2     d110       0.0000    0.0000    0.0000    0.0000   -0.0000   -0.0000   -0.0000   -0.0000   -0.0682   -0.0000
       79 N2     d101      -0.0000    0.0000   -0.0000   -0.0011   -0.0000    0.0000   -0.0011    0.0000   -0.0000    0.0000
       80 N2     d101      -0.0000   -0.0000   -0.0000   -0.0043   -0.0000   -0.0000    0.0067    0.0000   -0.0000   -0.0000
       81 N2     d101      -0.0000    0.0000    0.0000    0.0031    0.0000   -0.0002    0.1581   -0.0000    0.0000   -0.0000
       82 N2     d020      -0.0002   -0.0009   -0.0000   -0.0000   -0.0001    0.0000    0.0000    0.0017    0.0000   -0.0006
       83 N2     d020      -0.0030   -0.0049   -0.0000    0.0000   -0.0068    0.0000    0.0000    0.0118   -0.0000    0.0059
       84 N2     d020       0.0627    0.1448    0.0000    0.0000    0.1644   -0.0000   -0.0000   -0.1428    0.0000   -0.0341
       85 N2     d011      -0.0000    0.0000   -0.0011    0.0000   -0.0000   -0.0011   -0.0000   -0.0000   -0.0000   -0.0000
       86 N2     d011      -0.0000   -0.0000   -0.0043    0.0000    0.0000    0.0067    0.0000    0.0000    0.0000   -0.0000
       87 N2     d011      -0.0000   -0.0000    0.0031   -0.0000    0.0000    0.1581    0.0002    0.0000   -0.0000   -0.0000
       88 N2     d002       0.0000   -0.0009   -0.0000   -0.0000   -0.0003    0.0000    0.0000    0.0008    0.0000    0.0000
       89 N2     d002       0.0034   -0.0057   -0.0000    0.0000    0.0061    0.0000   -0.0000    0.0166    0.0000    0.0000
       90 N2     d002       0.1675    0.0943    0.0000    0.0000    0.4293   -0.0000   -0.0000   -0.0126    0.0000   -0.0000
       91 N2     f300      -0.0000   -0.0000    0.0000    0.0015    0.0000    0.0000   -0.0009   -0.0000    0.0000    0.0000
       92 N2     f300      -0.0000   -0.0000    0.0001    0.0112   -0.0000    0.0000   -0.0242   -0.0000   -0.0000    0.0000
       93 N2     f210       0.0000    0.0000    0.0015   -0.0000   -0.0000   -0.0009   -0.0000   -0.0000    0.0000    0.0000
       94 N2     f210       0.0000    0.0000    0.0112   -0.0001   -0.0000   -0.0242   -0.0000   -0.0000    0.0000   -0.0000
       95 N2     f201      -0.0004    0.0004   -0.0000   -0.0000   -0.0012    0.0000    0.0000   -0.0004   -0.0000    0.0001
       96 N2     f201      -0.0173    0.0071   -0.0000   -0.0000   -0.0442    0.0000    0.0000   -0.0142   -0.0000    0.0002
       97 N2     f120      -0.0000   -0.0000    0.0000    0.0015    0.0000    0.0000   -0.0009   -0.0000    0.0000    0.0000
       98 N2     f120      -0.0000   -0.0000    0.0001    0.0112   -0.0000    0.0000   -0.0242    0.0000   -0.0000    0.0000
       99 N2     f111       0.0000    0.0000   -0.0000   -0.0000   -0.0000   -0.0000    0.0000   -0.0000   -0.0001   -0.0000
      100 N2     f111       0.0000   -0.0000   -0.0000    0.0000   -0.0000   -0.0000   -0.0000   -0.0000   -0.0003   -0.0000
      101 N2     f102      -0.0000   -0.0000    0.0000    0.0013    0.0000    0.0000   -0.0016   -0.0000   -0.0000    0.0000
      102 N2     f102      -0.0000   -0.0000    0.0000    0.0105   -0.0000    0.0000   -0.0149    0.0000    0.0000   -0.0000
      103 N2     f030       0.0000    0.0000    0.0015   -0.0000   -0.0000   -0.0009   -0.0000   -0.0000    0.0000    0.0000
      104 N2     f030       0.0000    0.0000    0.0112   -0.0001   -0.0000   -0.0242   -0.0000   -0.0000    0.0000   -0.0000
      105 N2     f021      -0.0004    0.0004   -0.0000   -0.0000   -0.0012    0.0000    0.0000   -0.0004    0.0000   -0.0001
      106 N2     f021      -0.0173    0.0071   -0.0000   -0.0000   -0.0442    0.0000    0.0000   -0.0142    0.0000   -0.0002
      107 N2     f012       0.0000    0.0000    0.0013   -0.0000   -0.0000   -0.0016   -0.0000   -0.0000    0.0000    0.0000
      108 N2     f012      -0.0000    0.0000    0.0105   -0.0000   -0.0000   -0.0149   -0.0000    0.0000    0.0000   -0.0000
      109 N2     f003      -0.0004    0.0006   -0.0000   -0.0000   -0.0010    0.0000    0.0000   -0.0009   -0.0000    0.0000
      110 N2     f003      -0.0146    0.0046   -0.0000   -0.0000   -0.0378    0.0000    0.0000   -0.0051   -0.0000    0.0000
      111 X1     1s        -0.0000   10.9482   -0.0000   -0.0000   -0.0000    0.0000    0.0000   42.8104   -0.0000    0.0000
      112 X1     1s        -0.0000    4.3067   -0.0000   -0.0000   -0.0000    0.0000    0.0000  -31.0926   -0.0000    0.0000
      113 X1     1s         0.0000   -3.5066    0.0000    0.0000    0.0000   -0.0000   -0.0000    1.1900    0.0000   -0.0000
      114 X1     2px        0.0000   -0.0000   -0.0086   -1.8729    0.0000   -0.0000    0.0000    0.0000    0.0000   -0.0000
      115 X1     2px       -0.0000   -0.0000    0.0173    3.7448   -0.0000    0.0000   -0.0000   -0.0000   -0.0000   -0.0000
      116 X1     2px        0.0000    0.0000   -0.0091   -1.9799    0.0000   -0.0000    0.0000    0.0000    0.0000    0.0000
      117 X1     2py       -0.0000    0.0000   -1.8729    0.0086    0.0000   -0.0000   -0.0000    0.0000    0.0000    0.0000
      118 X1     2py        0.0000   -0.0000    3.7448   -0.0173   -0.0000   -0.0000   -0.0000   -0.0000   -0.0000   -0.0000
      119 X1     2py       -0.0000    0.0000   -1.9799    0.0091    0.0000    0.0000    0.0000    0.0000    0.0000    0.0000
      120 X1     2pz       -1.0814   -0.0000   -0.0000   -0.0000   -2.8384   -0.0000   -0.0000   -0.0000   -0.0000    0.0000
      121 X1     2pz        1.6581   -0.0000    0.0000    0.0000    4.2683    0.0000   -0.0000    0.0000    0.0000   -0.0000
      122 X1     2pz       -1.9123    0.0000   -0.0000   -0.0000   -2.1005   -0.0000    0.0000    0.0000   -0.0000   -0.0000
      123 X1     d200       0.0000    0.5258    0.0000    0.0000    0.0000   -0.0000   -0.0000   -1.1218    0.0000   -0.2148
      124 X1     d200       0.0000   -1.6168    0.0000    0.0000    0.0000   -0.0000   -0.0000   -2.8821   -0.0000    0.4878
      125 X1     d200       0.0000    0.3632    0.0000    0.0000    0.0000   -0.0000   -0.0000    3.8980    0.0000   -0.7836
      126 X1     d110      -0.0000    0.0000   -0.0000   -0.0000    0.0000    0.0000    0.0000    0.0000    0.4296    0.0000
      127 X1     d110       0.0000   -0.0000    0.0000   -0.0000   -0.0000    0.0000   -0.0000    0.0000   -0.9757   -0.0000
      128 X1     d110      -0.0000    0.0000   -0.0000    0.0000   -0.0000   -0.0000    0.0000   -0.0000    1.5672    0.0000
      129 X1     d101       0.0000    0.0000   -0.0000   -0.0000    0.0000   -0.0016    1.0898    0.0000    0.0000    0.0000
      130 X1     d101       0.0000   -0.0000   -0.0000   -0.0000    0.0000   -0.0069    4.5889    0.0000    0.0000    0.0000
      131 X1     d101      -0.0000    0.0000    0.0000    0.0000   -0.0000    0.0032   -2.1280   -0.0000   -0.0000   -0.0000
      132 X1     d020       0.0000    0.5258    0.0000    0.0000    0.0000   -0.0000   -0.0000   -1.1218   -0.0000    0.2148
      133 X1     d020       0.0000   -1.6168    0.0000    0.0000    0.0000   -0.0000   -0.0000   -2.8821    0.0000   -0.4878
      134 X1     d020       0.0000    0.3632    0.0000    0.0000    0.0000   -0.0000   -0.0000    3.8980   -0.0000    0.7836
      135 X1     d011       0.0000   -0.0000    0.0000   -0.0000    0.0000    1.0898    0.0016    0.0000   -0.0000    0.0000
      136 X1     d011      -0.0000   -0.0000    0.0000   -0.0000    0.0000    4.5889    0.0069    0.0000   -0.0000    0.0000
      137 X1     d011       0.0000    0.0000   -0.0000    0.0000    0.0000   -2.1280   -0.0032    0.0000    0.0000   -0.0000
      138 X1     d002       0.0000    0.0365    0.0000    0.0000    0.0000   -0.0000   -0.0000    0.0001    0.0000   -0.0000
      139 X1     d002       0.0000   -2.7547    0.0000    0.0000    0.0000   -0.0000   -0.0000    1.1316    0.0000   -0.0000
      140 X1     d002       0.0000    0.5284    0.0000    0.0000    0.0000   -0.0000   -0.0000    2.0456    0.0000   -0.0000

          Orbital           21        22        23        24        25        26        27        28        29        30    
          Energy            0.1027    0.1043    0.1043    0.1105    0.1181    0.1181    0.1347    0.1566    0.1566    0.1714
          Occ. No.          0.0000    0.0000    0.0000    0.0000    0.0000    0.0000    0.0000    0.0000    0.0000    0.0000

        1 N1     1s         0.0033    0.0000   -0.0000   -0.0057   -0.0000    0.0000   -0.0076    0.0000    0.0000   -0.0000
        2 N1     1s         0.0822    0.0000   -0.0000   -0.1119   -0.0000    0.0000   -0.0246    0.0000   -0.0000   -0.0000
        3 N1     1s         0.0172   -0.0000    0.0000    0.0117   -0.0000   -0.0000    0.0221    0.0000   -0.0000   -0.0000
        4 N1     1s        -7.3190   -0.0000   -0.0000   -3.5438    0.0000    0.0000   -3.5891    0.0000    0.0000    0.0000
        5 N1     1s        -5.0215   -0.0000    0.0000   -6.9142    0.0000    0.0000    7.0906    0.0000    0.0000   -0.0000
        6 N1     2px        0.0000    0.0047    0.1004   -0.0000   -0.0082    0.3487    0.0000    0.0000    0.0000    0.0149
        7 N1     2px       -0.0000    0.0005    0.0099    0.0000   -0.0016    0.0682   -0.0000   -0.0000   -0.0000   -0.0046
        8 N1     2px       -0.0000   -0.0146   -0.3080    0.0000    0.0232   -0.9858   -0.0000    0.0000   -0.0000    0.0564
        9 N1     2px       -0.0000    0.0420    0.8887    0.0000    0.3600  -15.3062    0.0000   -0.0000   -0.0000    0.7877
       10 N1     2py       -0.0000   -0.1004    0.0047   -0.0000    0.3487    0.0082    0.0000   -0.0000   -0.0000   -0.4594
       11 N1     2py        0.0000   -0.0099    0.0005    0.0000    0.0682    0.0016   -0.0000    0.0000   -0.0000    0.1412
       12 N1     2py       -0.0000    0.3080   -0.0146    0.0000   -0.9858   -0.0232   -0.0000    0.0000    0.0000   -1.7354
       13 N1     2py       -0.0000   -0.8887    0.0420    0.0000  -15.3062   -0.3600    0.0000    0.0000   -0.0000  -24.2180
       14 N1     2pz        0.0196    0.0000   -0.0000   -0.0777   -0.0000   -0.0000   -0.0293    0.0000    0.0000    0.0000
       15 N1     2pz       -0.1392   -0.0000   -0.0000   -0.0009    0.0000    0.0000    0.0991   -0.0000    0.0000   -0.0000
       16 N1     2pz        3.9366    0.0000    0.0000    0.0549   -0.0000   -0.0000   -0.9564   -0.0000   -0.0000   -0.0000
       17 N1     2pz        3.3562    0.0000   -0.0000   -3.7576    0.0000    0.0000  -24.6483   -0.0000   -0.0000    0.0000
       18 N1     d200       0.0017   -0.0000    0.0000    0.0015   -0.0000   -0.0000    0.0021    0.0000   -0.0028   -0.0000
       19 N1     d200       0.0243   -0.0000    0.0000    0.0126   -0.0000   -0.0000    0.0170   -0.0000    0.0085   -0.0000
       20 N1     d200      -0.2941    0.0000   -0.0000   -0.4445    0.0000    0.0000   -0.4251    0.0000   -0.0907   -0.0000
       21 N1     d110       0.0000    0.0000    0.0000    0.0000    0.0000    0.0000    0.0000    0.0055    0.0000   -0.0000
       22 N1     d110      -0.0000    0.0000    0.0000   -0.0000   -0.0000   -0.0000   -0.0000   -0.0169   -0.0000   -0.0000
       23 N1     d110      -0.0000    0.0000   -0.0000   -0.0000    0.0000    0.0000    0.0000    0.1815    0.0000    0.0000
       24 N1     d101       0.0000   -0.0002   -0.0036   -0.0000   -0.0001    0.0060    0.0000    0.0000   -0.0000    0.0003
       25 N1     d101      -0.0000   -0.0002   -0.0040   -0.0000   -0.0007    0.0279   -0.0000    0.0000   -0.0000    0.0006
       26 N1     d101       0.0000   -0.0004   -0.0093    0.0000   -0.0054    0.2299    0.0000   -0.0000    0.0000   -0.0092
       27 N1     d020       0.0017   -0.0000    0.0000    0.0015    0.0000   -0.0000    0.0021   -0.0000    0.0028   -0.0000
       28 N1     d020       0.0243   -0.0000    0.0000    0.0126   -0.0000   -0.0000    0.0170    0.0000   -0.0085   -0.0000
       29 N1     d020      -0.2941    0.0000   -0.0000   -0.4445    0.0000    0.0000   -0.4251   -0.0000    0.0907   -0.0000
       30 N1     d011       0.0000    0.0036   -0.0002    0.0000    0.0060    0.0001   -0.0000    0.0000   -0.0000   -0.0080
       31 N1     d011      -0.0000    0.0040   -0.0002   -0.0000    0.0279    0.0007    0.0000   -0.0000    0.0000   -0.0173
       32 N1     d011      -0.0000    0.0093   -0.0004   -0.0000    0.2299    0.0054    0.0000   -0.0000    0.0000    0.2814
       33 N1     d002      -0.0001   -0.0000    0.0000    0.0017   -0.0000   -0.0000    0.0046   -0.0000   -0.0000   -0.0000
       34 N1     d002      -0.0211    0.0000    0.0000    0.0063   -0.0000   -0.0000    0.0248    0.0000   -0.0000   -0.0000
       35 N1     d002      -0.8855   -0.0000   -0.0000   -0.3905    0.0000    0.0000   -0.1283    0.0000    0.0000   -0.0000
       36 N1     f300       0.0000    0.0002    0.0036   -0.0000   -0.0001    0.0038    0.0000    0.0000    0.0000   -0.0000
       37 N1     f300       0.0000    0.0013    0.0272   -0.0000   -0.0011    0.0455    0.0000   -0.0000    0.0000   -0.0020
       38 N1     f210       0.0000   -0.0036    0.0002   -0.0000    0.0038    0.0001   -0.0000   -0.0000    0.0000    0.0004
       39 N1     f210       0.0000   -0.0272    0.0013   -0.0000    0.0455    0.0011    0.0000   -0.0000   -0.0000    0.0604
       40 N1     f201      -0.0023    0.0000   -0.0000   -0.0002   -0.0000    0.0000    0.0020   -0.0000    0.0003    0.0000
       41 N1     f201      -0.0861   -0.0000   -0.0000   -0.0009    0.0000   -0.0000    0.0508   -0.0000    0.0009   -0.0000
       42 N1     f120       0.0000    0.0002    0.0036   -0.0000   -0.0001    0.0038    0.0000    0.0000    0.0000   -0.0000
       43 N1     f120       0.0000    0.0013    0.0272   -0.0000   -0.0011    0.0455    0.0000   -0.0000    0.0000   -0.0020
       44 N1     f111       0.0000    0.0000    0.0000   -0.0000    0.0000    0.0000   -0.0000   -0.0006   -0.0000    0.0000
       45 N1     f111       0.0000   -0.0000   -0.0000    0.0000   -0.0000    0.0000    0.0000   -0.0018   -0.0000   -0.0000
       46 N1     f102       0.0000    0.0002    0.0051   -0.0000   -0.0001    0.0030    0.0000    0.0000    0.0000   -0.0001
       47 N1     f102       0.0000    0.0012    0.0257   -0.0000   -0.0007    0.0315    0.0000   -0.0000    0.0000   -0.0017
       48 N1     f030       0.0000   -0.0036    0.0002   -0.0000    0.0038    0.0001    0.0000   -0.0000    0.0000    0.0004
       49 N1     f030       0.0000   -0.0272    0.0013   -0.0000    0.0455    0.0011    0.0000   -0.0000   -0.0000    0.0604
       50 N1     f021      -0.0023    0.0000    0.0000   -0.0002    0.0000   -0.0000    0.0020    0.0000   -0.0003    0.0000
       51 N1     f021      -0.0861   -0.0000   -0.0000   -0.0009    0.0000   -0.0000    0.0508    0.0000   -0.0009   -0.0000
       52 N1     f012       0.0000   -0.0051    0.0002   -0.0000    0.0030    0.0001    0.0000   -0.0000    0.0000    0.0039
       53 N1     f012       0.0000   -0.0257    0.0012   -0.0000    0.0315    0.0007    0.0000   -0.0000   -0.0000    0.0515
       54 N1     f003      -0.0011   -0.0000    0.0000    0.0001   -0.0000   -0.0000    0.0029    0.0000    0.0000    0.0000
       55 N1     f003      -0.0698   -0.0000   -0.0000   -0.0019    0.0000    0.0000    0.0358   -0.0000    0.0000    0.0000
       56 N2     1s        -0.0033   -0.0000   -0.0000   -0.0057    0.0000    0.0000   -0.0076   -0.0000    0.0000    0.0000
       57 N2     1s        -0.0822   -0.0000    0.0000   -0.1119    0.0000    0.0000   -0.0246   -0.0000   -0.0000   -0.0000
       58 N2     1s        -0.0172   -0.0000   -0.0000    0.0117    0.0000    0.0000    0.0221    0.0000   -0.0000    0.0000
       59 N2     1s         7.3190    0.0000   -0.0000   -3.5438   -0.0000    0.0000   -3.5891   -0.0000    0.0000   -0.0000
       60 N2     1s         5.0215   -0.0000    0.0000   -6.9142    0.0000    0.0000    7.0906    0.0000    0.0000   -0.0000
       61 N2     2px       -0.0000    0.0047    0.1004   -0.0000    0.0082   -0.3487    0.0000   -0.0000   -0.0000   -0.0149
       62 N2     2px        0.0000    0.0005    0.0099    0.0000    0.0016   -0.0682   -0.0000    0.0000    0.0000    0.0046
       63 N2     2px        0.0000   -0.0146   -0.3080    0.0000   -0.0232    0.9858    0.0000    0.0000    0.0000   -0.0564
       64 N2     2px        0.0000    0.0420    0.8887   -0.0000   -0.3600   15.3062   -0.0000    0.0000    0.0000   -0.7877
       65 N2     2py        0.0000   -0.1004    0.0047    0.0000   -0.3487   -0.0082    0.0000    0.0000   -0.0000    0.4594
       66 N2     2py       -0.0000   -0.0099    0.0005   -0.0000   -0.0682   -0.0016   -0.0000   -0.0000    0.0000   -0.1412
       67 N2     2py        0.0000    0.3080   -0.0146   -0.0000    0.9858    0.0232   -0.0000   -0.0000    0.0000    1.7354
       68 N2     2py        0.0000   -0.8887    0.0420   -0.0000   15.3062    0.3600   -0.0000   -0.0000    0.0000   24.2180
       69 N2     2pz        0.0196   -0.0000    0.0000    0.0777   -0.0000   -0.0000    0.0293    0.0000   -0.0000    0.0000
       70 N2     2pz       -0.1392   -0.0000   -0.0000    0.0009    0.0000    0.0000   -0.0991   -0.0000   -0.0000   -0.0000
       71 N2     2pz        3.9366    0.0000    0.0000   -0.0549   -0.0000   -0.0000    0.9564   -0.0000    0.0000   -0.0000
       72 N2     2pz        3.3562   -0.0000    0.0000    3.7576   -0.0000   -0.0000   24.6483   -0.0000    0.0000    0.0000
       73 N2     d200      -0.0017   -0.0000   -0.0000    0.0015    0.0000    0.0000    0.0021    0.0000   -0.0028    0.0000
       74 N2     d200      -0.0243   -0.0000   -0.0000    0.0126    0.0000    0.0000    0.0170   -0.0000    0.0085    0.0000
       75 N2     d200       0.2941    0.0000   -0.0000   -0.4445    0.0000    0.0000   -0.4251    0.0000   -0.0907    0.0000
       76 N2     d110      -0.0000    0.0000    0.0000    0.0000   -0.0000    0.0000   -0.0000    0.0055    0.0000    0.0000
       77 N2     d110       0.0000   -0.0000   -0.0000   -0.0000    0.0000   -0.0000    0.0000   -0.0169   -0.0000   -0.0000
       78 N2     d110      -0.0000    0.0000   -0.0000    0.0000   -0.0000    0.0000    0.0000    0.1815    0.0000   -0.0000
       79 N2     d101       0.0000    0.0002    0.0036   -0.0000   -0.0001    0.0060    0.0000   -0.0000   -0.0000    0.0003
       80 N2     d101      -0.0000    0.0002    0.0040   -0.0000   -0.0007    0.0279   -0.0000    0.0000   -0.0000    0.0006
       81 N2     d101       0.0000    0.0004    0.0093   -0.0000   -0.0054    0.2299    0.0000   -0.0000    0.0000   -0.0092
       82 N2     d020      -0.0017   -0.0000   -0.0000    0.0015    0.0000    0.0000    0.0021   -0.0000    0.0028    0.0000
       83 N2     d020      -0.0243   -0.0000   -0.0000    0.0126    0.0000    0.0000    0.0170    0.0000   -0.0085    0.0000
       84 N2     d020       0.2941    0.0000   -0.0000   -0.4445    0.0000    0.0000   -0.4251   -0.0000    0.0907    0.0000
       85 N2     d011       0.0000   -0.0036    0.0002   -0.0000    0.0060    0.0001   -0.0000    0.0000   -0.0000   -0.0080
       86 N2     d011      -0.0000   -0.0040    0.0002    0.0000    0.0279    0.0007    0.0000   -0.0000    0.0000   -0.0173
       87 N2     d011       0.0000   -0.0093    0.0004   -0.0000    0.2299    0.0054    0.0000   -0.0000    0.0000    0.2814
       88 N2     d002       0.0001   -0.0000   -0.0000    0.0017    0.0000    0.0000    0.0046    0.0000   -0.0000    0.0000
       89 N2     d002       0.0211   -0.0000   -0.0000    0.0063    0.0000    0.0000    0.0248   -0.0000   -0.0000    0.0000
       90 N2     d002       0.8855    0.0000   -0.0000   -0.3905    0.0000    0.0000   -0.1283   -0.0000    0.0000   -0.0000
       91 N2     f300      -0.0000    0.0002    0.0036   -0.0000    0.0001   -0.0038    0.0000   -0.0000   -0.0000    0.0000
       92 N2     f300      -0.0000    0.0013    0.0272   -0.0000    0.0011   -0.0455    0.0000   -0.0000    0.0000    0.0020
       93 N2     f210       0.0000   -0.0036    0.0002    0.0000   -0.0038   -0.0001    0.0000    0.0000   -0.0000   -0.0004
       94 N2     f210       0.0000   -0.0272    0.0013    0.0000   -0.0455   -0.0011    0.0000    0.0000   -0.0000   -0.0604
       95 N2     f201      -0.0023    0.0000    0.0000    0.0002   -0.0000   -0.0000   -0.0020    0.0000   -0.0003    0.0000
       96 N2     f201      -0.0861   -0.0000   -0.0000    0.0009   -0.0000   -0.0000   -0.0508    0.0000   -0.0009    0.0000
       97 N2     f120      -0.0000    0.0002    0.0036   -0.0000    0.0001   -0.0038    0.0000   -0.0000    0.0000    0.0000
       98 N2     f120      -0.0000    0.0013    0.0272   -0.0000    0.0011   -0.0455    0.0000   -0.0000   -0.0000    0.0020
       99 N2     f111       0.0000   -0.0000    0.0000    0.0000   -0.0000   -0.0000    0.0000    0.0006    0.0000   -0.0000
      100 N2     f111       0.0000   -0.0000   -0.0000   -0.0000    0.0000    0.0000    0.0000    0.0018    0.0000   -0.0000
      101 N2     f102      -0.0000    0.0002    0.0051   -0.0000    0.0001   -0.0030    0.0000   -0.0000   -0.0000    0.0001
      102 N2     f102      -0.0000    0.0012    0.0257   -0.0000    0.0007   -0.0315    0.0000   -0.0000   -0.0000    0.0017
      103 N2     f030       0.0000   -0.0036    0.0002    0.0000   -0.0038   -0.0001    0.0000    0.0000   -0.0000   -0.0004
      104 N2     f030       0.0000   -0.0272    0.0013    0.0000   -0.0455   -0.0011    0.0000    0.0000   -0.0000   -0.0604
      105 N2     f021      -0.0023    0.0000    0.0000    0.0002   -0.0000   -0.0000   -0.0020   -0.0000    0.0003    0.0000
      106 N2     f021      -0.0861   -0.0000   -0.0000    0.0009   -0.0000   -0.0000   -0.0508   -0.0000    0.0009    0.0000
      107 N2     f012       0.0000   -0.0051    0.0002    0.0000   -0.0030   -0.0001    0.0000    0.0000   -0.0000   -0.0039
      108 N2     f012      -0.0000   -0.0257    0.0012    0.0000   -0.0315   -0.0007    0.0000    0.0000   -0.0000   -0.0515
      109 N2     f003      -0.0011   -0.0000    0.0000   -0.0001   -0.0000   -0.0000   -0.0029    0.0000   -0.0000    0.0000
      110 N2     f003      -0.0698   -0.0000   -0.0000    0.0019   -0.0000   -0.0000   -0.0358   -0.0000   -0.0000    0.0000
      111 X1     1s        -0.0000   -0.0000    0.0000  -25.9304   -0.0000   -0.0000   86.2332   -0.0000   -0.0000    0.0000
      112 X1     1s        -0.0000    0.0000   -0.0000  113.3288    0.0000   -0.0000 -206.0401   -0.0000   -0.0000    0.0000
      113 X1     1s         0.0000   -0.0000    0.0000   -0.1504   -0.0000    0.0000    6.0999    0.0000    0.0000   -0.0000
      114 X1     2px       -0.0000   -0.2345   -4.9605   -0.0000    0.0000   -0.0000   -0.0000    0.0000   -0.0000   -0.0000
      115 X1     2px        0.0000    0.2099    4.4401    0.0000   -0.0000    0.0000    0.0000   -0.0000    0.0000   -0.0000
      116 X1     2px        0.0000   -0.0727   -1.5370   -0.0000    0.0000   -0.0000   -0.0000    0.0000   -0.0000    0.0000
      117 X1     2py        0.0000    4.9605   -0.2345   -0.0000    0.0000    0.0000   -0.0000    0.0000    0.0000    0.0000
      118 X1     2py        0.0000   -4.4401    0.2099    0.0000   -0.0000   -0.0000    0.0000   -0.0000   -0.0000   -0.0000
      119 X1     2py       -0.0000    1.5370   -0.0727   -0.0000    0.0000    0.0000   -0.0000    0.0000    0.0000    0.0000
      120 X1     2pz       -7.2854   -0.0000    0.0000   -0.0000   -0.0000   -0.0000   -0.0000    0.0000   -0.0000   -0.0000
      121 X1     2pz        5.2735    0.0000   -0.0000    0.0000    0.0000   -0.0000   -0.0000   -0.0000    0.0000    0.0000
      122 X1     2pz       -1.6885   -0.0000   -0.0000   -0.0000   -0.0000    0.0000    0.0000    0.0000   -0.0000   -0.0000
      123 X1     d200       0.0000    0.0000   -0.0000   -2.4912    0.0000    0.0000   -1.8664   -0.0000    0.5426   -0.0000
      124 X1     d200       0.0000   -0.0000    0.0000   -5.9580    0.0000    0.0000    6.3587    0.0000   -1.3302   -0.0000
      125 X1     d200       0.0000   -0.0000    0.0000  -14.4080   -0.0000    0.0000   24.0742   -0.0000    0.7045   -0.0000
      126 X1     d110       0.0000   -0.0000    0.0000   -0.0000   -0.0000   -0.0000   -0.0000   -1.0852   -0.0000   -0.0000
      127 X1     d110       0.0000    0.0000    0.0000    0.0000    0.0000    0.0000    0.0000    2.6604    0.0000    0.0000
      128 X1     d110      -0.0000   -0.0000   -0.0000   -0.0000   -0.0000   -0.0000   -0.0000   -1.4089   -0.0000   -0.0000
      129 X1     d101       0.0000   -0.0000   -0.0000   -0.0000   -0.0446    1.8981   -0.0000    0.0000    0.0000   -0.0921
      130 X1     d101       0.0000   -0.0000   -0.0000   -0.0000   -0.1708    7.2633   -0.0000    0.0000    0.0000   -0.3354
      131 X1     d101      -0.0000    0.0000    0.0000    0.0000    0.0408   -1.7347    0.0000   -0.0000   -0.0000    0.0597
      132 X1     d020       0.0000    0.0000   -0.0000   -2.4912    0.0000    0.0000   -1.8664    0.0000   -0.5426   -0.0000
      133 X1     d020       0.0000   -0.0000    0.0000   -5.9580    0.0000    0.0000    6.3587   -0.0000    1.3302   -0.0000
      134 X1     d020       0.0000   -0.0000    0.0000  -14.4080   -0.0000    0.0000   24.0742    0.0000   -0.7045   -0.0000
      135 X1     d011       0.0000   -0.0000    0.0000   -0.0000    1.8981    0.0446   -0.0000   -0.0000    0.0000    2.8322
      136 X1     d011       0.0000   -0.0000    0.0000   -0.0000    7.2633    0.1708   -0.0000   -0.0000    0.0000   10.3127
      137 X1     d011      -0.0000    0.0000   -0.0000    0.0000   -1.7347   -0.0408    0.0000    0.0000   -0.0000   -1.8352
      138 X1     d002       0.0000    0.0000   -0.0000   -1.1983    0.0000    0.0000    0.9935    0.0000    0.0000   -0.0000
      139 X1     d002       0.0000   -0.0000    0.0000   -4.7642    0.0000    0.0000   16.7306    0.0000    0.0000   -0.0000
      140 X1     d002       0.0000   -0.0000    0.0000  -14.4199   -0.0000    0.0000   22.0735    0.0000    0.0000   -0.0000

          Orbital           31        32        33        34        35        36        37        38        39        40    
          Energy            0.1714    0.1779    0.2002    0.2508    0.2508    0.2581    0.2700    0.2707    0.3054    0.3054
          Occ. No.          0.0000    0.0000    0.0000    0.0000    0.0000    0.0000    0.0000    0.0000    0.0000    0.0000

        1 N1     1s        -0.0000    0.0004   -0.0019   -0.0000   -0.0000    0.0172   -0.0193   -0.0056    0.0000    0.0000
        2 N1     1s        -0.0000    0.0394   -0.0987   -0.0000   -0.0000   -0.0760   -0.1451    0.1028    0.0000    0.0000
        3 N1     1s        -0.0000    0.0243    0.1347    0.0000   -0.0000    0.0078    0.0126    0.1157   -0.0000   -0.0000
        4 N1     1s        -0.0000  -14.9701   -2.9221   -0.0000    0.0000   11.2261  -24.2849   27.0926   -0.0000    0.0000
        5 N1     1s        -0.0000 -205.3246  -48.4911   -0.0000   -0.0000  -54.5887 -147.7922  -49.0822   -0.0000   -0.0000
        6 N1     2px       -0.4594   -0.0000   -0.0000    0.1278    0.0009   -0.0000   -0.0000   -0.0000   -0.0049    0.3555
        7 N1     2px        0.1412    0.0000    0.0000   -0.0647   -0.0005    0.0000    0.0000   -0.0000   -0.0058    0.4223
        8 N1     2px       -1.7354    0.0000   -0.0000    0.9731    0.0071    0.0000    0.0000    0.0000    0.0524   -3.8221
        9 N1     2px      -24.2180   -0.0000   -0.0000   -2.3680   -0.0172    0.0000    0.0000    0.0000    0.6658  -48.5982
       10 N1     2py       -0.0149   -0.0000    0.0000   -0.0009    0.1278   -0.0000    0.0000   -0.0000    0.3555    0.0049
       11 N1     2py        0.0046    0.0000    0.0000    0.0005   -0.0647    0.0000   -0.0000   -0.0000    0.4223    0.0058
       12 N1     2py       -0.0564    0.0000   -0.0000   -0.0071    0.9731    0.0000    0.0000    0.0000   -3.8221   -0.0524
       13 N1     2py       -0.7877   -0.0000   -0.0000    0.0172   -2.3680    0.0000    0.0000    0.0000  -48.5982   -0.6658
       14 N1     2pz        0.0000   -0.0160   -0.0371   -0.0000   -0.0000   -0.1381    0.0320    0.0724   -0.0000   -0.0000
       15 N1     2pz       -0.0000   -0.3274    0.4960   -0.0000    0.0000   -0.1231   -0.1297    1.2526   -0.0000   -0.0000
       16 N1     2pz       -0.0000    3.3436    1.4860    0.0000   -0.0000    1.1907    1.3247  -14.1330    0.0000    0.0000
       17 N1     2pz       -0.0000   32.6684   15.1517    0.0000    0.0000   36.8759  -18.9447    8.9067    0.0000    0.0000
       18 N1     d200       0.0000    0.0017    0.0113    0.0000    0.0000   -0.0001    0.0037    0.0110   -0.0000   -0.0000
       19 N1     d200      -0.0000    0.0183    0.1494    0.0000   -0.0000    0.0073    0.0210    0.1096   -0.0000   -0.0000
       20 N1     d200      -0.0000   -1.7363    0.7825   -0.0000    0.0000    1.6731   -3.0587    2.3552   -0.0000    0.0000
       21 N1     d110       0.0000   -0.0000   -0.0000   -0.0000    0.0000   -0.0000   -0.0000    0.0000    0.0000    0.0000
       22 N1     d110       0.0000    0.0000   -0.0000    0.0000   -0.0000    0.0000    0.0000   -0.0000    0.0000    0.0000
       23 N1     d110       0.0000   -0.0000    0.0000   -0.0000    0.0000   -0.0000   -0.0000    0.0000    0.0000    0.0000
       24 N1     d101      -0.0080   -0.0000   -0.0000   -0.0060   -0.0000    0.0000   -0.0000   -0.0000   -0.0001    0.0067
       25 N1     d101      -0.0173    0.0000    0.0000   -0.0214   -0.0002    0.0000   -0.0000    0.0000    0.0005   -0.0332
       26 N1     d101       0.2814    0.0000    0.0000    0.0007    0.0000    0.0000   -0.0000   -0.0000   -0.0052    0.3781
       27 N1     d020      -0.0000    0.0017    0.0113    0.0000    0.0000   -0.0001    0.0037    0.0110   -0.0000   -0.0000
       28 N1     d020      -0.0000    0.0183    0.1494    0.0000   -0.0000    0.0073    0.0210    0.1096   -0.0000   -0.0000
       29 N1     d020      -0.0000   -1.7363    0.7825   -0.0000    0.0000    1.6731   -3.0587    2.3552   -0.0000    0.0000
       30 N1     d011      -0.0003   -0.0000   -0.0000    0.0000   -0.0060    0.0000   -0.0000    0.0000    0.0067    0.0001
       31 N1     d011      -0.0006    0.0000    0.0000    0.0002   -0.0214   -0.0000    0.0000    0.0000   -0.0332   -0.0005
       32 N1     d011       0.0092    0.0000    0.0000   -0.0000    0.0007   -0.0000   -0.0000   -0.0000    0.3781    0.0052
       33 N1     d002       0.0000    0.0015    0.0064    0.0000    0.0000   -0.0048    0.0004    0.0041   -0.0000   -0.0000
       34 N1     d002       0.0000    0.0417   -0.0225    0.0000   -0.0000    0.0437   -0.0097    0.0274   -0.0000   -0.0000
       35 N1     d002      -0.0000   -1.8347    0.2663   -0.0000    0.0000    1.4160   -2.7754    4.0941   -0.0000   -0.0000
       36 N1     f300       0.0004   -0.0000   -0.0000   -0.0089   -0.0001   -0.0000   -0.0000   -0.0000   -0.0001    0.0099
       37 N1     f300       0.0604   -0.0000    0.0000   -0.0785   -0.0006   -0.0000   -0.0000   -0.0000   -0.0026    0.1893
       38 N1     f210       0.0000   -0.0000   -0.0000    0.0001   -0.0089   -0.0000    0.0000   -0.0000    0.0099    0.0001
       39 N1     f210       0.0020   -0.0000    0.0000    0.0006   -0.0785   -0.0000   -0.0000   -0.0000    0.1893    0.0026
       40 N1     f201       0.0000   -0.0057   -0.0015   -0.0000   -0.0000   -0.0033   -0.0024    0.0070   -0.0000    0.0000
       41 N1     f201      -0.0000   -0.1510    0.0713   -0.0000    0.0000   -0.0735   -0.0430    0.4413   -0.0000   -0.0000
       42 N1     f120       0.0004   -0.0000   -0.0000   -0.0089   -0.0001   -0.0000   -0.0000   -0.0000   -0.0001    0.0099
       43 N1     f120       0.0604   -0.0000    0.0000   -0.0785   -0.0006   -0.0000   -0.0000   -0.0000   -0.0026    0.1893
       44 N1     f111       0.0000   -0.0000    0.0000    0.0000    0.0000   -0.0000   -0.0000    0.0000   -0.0000    0.0000
       45 N1     f111      -0.0000    0.0000   -0.0000    0.0000    0.0000    0.0000    0.0000   -0.0000   -0.0000   -0.0000
       46 N1     f102       0.0039    0.0000   -0.0000   -0.0084   -0.0001   -0.0000   -0.0000   -0.0000   -0.0001    0.0106
       47 N1     f102       0.0515   -0.0000   -0.0000   -0.0700   -0.0005   -0.0000   -0.0000   -0.0000   -0.0027    0.1939
       48 N1     f030       0.0000   -0.0000   -0.0000    0.0001   -0.0089   -0.0000    0.0000   -0.0000    0.0099    0.0001
       49 N1     f030       0.0020   -0.0000    0.0000    0.0006   -0.0785   -0.0000   -0.0000   -0.0000    0.1893    0.0026
       50 N1     f021       0.0000   -0.0057   -0.0015   -0.0000   -0.0000   -0.0033   -0.0024    0.0070   -0.0000   -0.0000
       51 N1     f021      -0.0000   -0.1510    0.0713   -0.0000    0.0000   -0.0735   -0.0430    0.4413   -0.0000   -0.0000
       52 N1     f012       0.0001   -0.0000    0.0000    0.0001   -0.0084   -0.0000    0.0000   -0.0000    0.0106    0.0001
       53 N1     f012       0.0017   -0.0000   -0.0000    0.0005   -0.0700   -0.0000   -0.0000   -0.0000    0.1939    0.0027
       54 N1     f003       0.0000   -0.0075    0.0103    0.0000   -0.0000   -0.0054   -0.0000    0.0191   -0.0000   -0.0000
       55 N1     f003      -0.0000   -0.1585    0.1013   -0.0000    0.0000   -0.0808   -0.0494    0.4224   -0.0000   -0.0000
       56 N2     1s        -0.0000    0.0004    0.0019   -0.0000    0.0000    0.0172   -0.0193    0.0056   -0.0000    0.0000
       57 N2     1s        -0.0000    0.0394    0.0987   -0.0000    0.0000   -0.0760   -0.1451   -0.1028   -0.0000   -0.0000
       58 N2     1s         0.0000    0.0243   -0.1347   -0.0000    0.0000    0.0078    0.0126   -0.1157    0.0000    0.0000
       59 N2     1s        -0.0000  -14.9701    2.9221    0.0000   -0.0000   11.2261  -24.2849  -27.0926   -0.0000    0.0000
       60 N2     1s        -0.0000 -205.3246   48.4911   -0.0000   -0.0000  -54.5887 -147.7922   49.0822    0.0000    0.0000
       61 N2     2px        0.4594   -0.0000    0.0000    0.1278    0.0009   -0.0000    0.0000   -0.0000    0.0049   -0.3555
       62 N2     2px       -0.1412    0.0000   -0.0000   -0.0647   -0.0005    0.0000   -0.0000    0.0000    0.0058   -0.4223
       63 N2     2px        1.7354    0.0000    0.0000    0.9731    0.0071   -0.0000   -0.0000   -0.0000   -0.0524    3.8221
[...]
AIVX     1  Mu1.0006  In1.005 Se1.038               1.19939913      0.05494307     -0.04643376     -0.00255121
AIVX     1  Mu1.0006  In1.005 Se1.043               1.32695842     -0.05660785      0.04165862     -0.00235820
AIVX     1  Mu1.0006  In1.004 Se1.046               1.50396995     -0.05934260      0.03885493     -0.00230575
AIVX     1  Mu1.0039  In1.005 Se1.046               2.08300621     -0.05806987      0.02791924     -0.00162127
AIVX     1  Mu1.0006  In1.004 Se1.052               1.62499120     -0.06448375      0.04138585     -0.00266871
AIVX     1  Mu1.0039  In1.005 Se1.052               2.20402746      0.07706044     -0.03502780     -0.00269926
AIVX     1  Mu1.0006  In1.005 Se1.053               1.56184104     -0.06946406      0.04330433     -0.00300809
AIVX     1  Mu1.0039  In1.003 Se1.061               3.28365339      0.09593893     -0.02907236     -0.00278917
AIVX     1  Mu1.0040  In1.003 Se1.061               3.32954118     -0.09262919      0.02774913     -0.00257038
AIVX     1  Mu1.0039  In1.005 Se1.061               2.33160881      0.09371486     -0.04007083     -0.00375523
AIVX     1  Mu1.0006  In1.005 Se1.065               2.01397189      0.05869551     -0.02780956     -0.00163230
AIVX     1  Mu1.0006  In1.004 Se1.066               2.11004926      0.06043512     -0.02839829     -0.00171625
AIVX     1  Mu1.0039  In1.005 Se1.066               2.68908553     -0.06888100      0.02547033     -0.00175442
BVATP    1  Mu1.0001  Se1.036 Se1.036               1.18138261      0.00018379      0.06412743      0.00001179
BVATP    1  Mu1.0003  Se1.036 Se1.036               1.26038428     -0.00131561     -0.05932103      0.00007804
BVATP    1  Mu1.0001  Se1.037 Se1.037               1.18138261      0.00018381      0.06412344      0.00001179
BVATP    1  Mu1.0003  Se1.037 Se1.037               1.26038429      0.00131560      0.05931616      0.00007804
BVATP    1  Mu1.0001  Se1.054 Se1.036               1.53134556     -0.00049849     -0.02986002      0.00001488
BVATP    1  Mu1.0003  Se1.054 Se1.036               1.61034724      0.00151188      0.02774172      0.00004194
BVATP    1  Mu1.0002  Se1.054 Se1.037               1.59287955     -0.00011709     -0.02929578      0.00000343
BVATP    1  Mu1.0002  Se1.055 Se1.036               1.59287955      0.00011709      0.02929790      0.00000343
BVATP    1  Mu1.0001  Se1.055 Se1.037               1.53134557     -0.00049852     -0.02985808      0.00001488
BVATP    1  Mu1.0003  Se1.055 Se1.037               1.61034724     -0.00151188     -0.02773934      0.00004194
BVATM    1  Mu1.0001  Se1.036 Se1.020               1.11250014     -0.00017832     -0.03365243      0.00000600
BVATM    1  Mu1.0001  Se1.037 Se1.021               1.11250014     -0.00017832     -0.03365102      0.00000600
BVATM    1  Mu1.0001  Se1.054 Se1.037               1.57720054     -0.00102937      0.05221118     -0.00005374
BVATM    1  Mu1.0001  Se1.055 Se1.036               1.57720054     -0.00102937      0.05221489     -0.00005375
BJATP    1  Mu1.0002  In1.005 Se1.036 Se1.023       1.26782646      0.00139323     -0.03923466     -0.00005466
BJATP    1  Mu1.0001  In1.005 Se1.037 Se1.023       1.26782638      0.00139323     -0.03923164     -0.00005466
BJATP    1  Mu1.0002  In1.005 Se1.053 Se1.036       1.84439813      0.00095704      0.02514298      0.00002406
BJATP    1  Mu1.0001  In1.005 Se1.053 Se1.037       1.84439806      0.00095704      0.02514111      0.00002406
BJATM    1  Mu1.0002  In1.004 Se1.036 Se1.022       1.43413559      0.00138610      0.02753799      0.00003817
BJATM    1  Mu1.0002  In1.005 Se1.036 Se1.023       1.26782646     -0.00523283     -0.06162800      0.00032249
BJATM    1  Mu1.0002  In1.004 Se1.036 Se1.027       1.49379544      0.00140842      0.02853376      0.00004019
BJATM    1  Mu1.0002  In1.005 Se1.036 Se1.030       1.35593104      0.00195444      0.03865095      0.00007554
BJATM    1  Mu1.0002  In1.004 Se1.036 Se1.035       1.57432290      0.00087916      0.02934297      0.00002580
BJATM    1  Mu1.0001  In1.004 Se1.037 Se1.022       1.43413551      0.00138610      0.02753587      0.00003817
BJATM    1  Mu1.0001  In1.005 Se1.037 Se1.023       1.26782638     -0.00523283     -0.06162277      0.00032246
BJATM    1  Mu1.0001  In1.004 Se1.037 Se1.027       1.49379536      0.00140842      0.02853158      0.00004018
BJATM    1  Mu1.0001  In1.005 Se1.037 Se1.030       1.35593096      0.00195444      0.03864794      0.00007554
BJATM    1  Mu1.0001  In1.004 Se1.037 Se1.035       1.57432282      0.00087916      0.02934077      0.00002580
BJATM    1  Mu1.0002  In1.005 Se1.038 Se1.036       1.48195622      0.00005400      0.04375327      0.00000236
BJATM    1  Mu1.0001  In1.005 Se1.038 Se1.037       1.48195614      0.00005400      0.04375005      0.00000236
BJATM    1  Mu1.0002  In1.005 Se1.043 Se1.036       1.60951551     -0.00211655     -0.04012830      0.00008493
BJATM    1  Mu1.0001  In1.005 Se1.043 Se1.037       1.60951543     -0.00211655     -0.04012527      0.00008493
BJATM    1  Mu1.0002  In1.004 Se1.046 Se1.036       1.78652704     -0.00155648     -0.03863282      0.00006013
BJATM    1  Mu1.0001  In1.004 Se1.046 Se1.037       1.78652696     -0.00155648     -0.03862993      0.00006013
BJATM    1  Mu1.0002  In1.004 Se1.052 Se1.036       1.90754829     -0.00051064     -0.04018057      0.00002052
BJATM    1  Mu1.0001  In1.004 Se1.052 Se1.037       1.90754821     -0.00051064     -0.04017763      0.00002052
BJATM    1  Mu1.0002  In1.005 Se1.053 Se1.036       1.84439813     -0.00150903     -0.04345909      0.00006558
BJATM    1  Mu1.0001  In1.005 Se1.053 Se1.037       1.84439806     -0.00150903     -0.04345587      0.00006558
BJATM    1  Mu1.0002  In1.005 Se1.065 Se1.036       2.29652898      0.00125708      0.02947258      0.00003705
BJATM    1  Mu1.0001  In1.005 Se1.065 Se1.037       2.29652891      0.00125708      0.02947040      0.00003705
BJATM    1  Mu1.0002  In1.004 Se1.066 Se1.036       2.39260635      0.00074950      0.02923738      0.00002191
BJATM    1  Mu1.0001  In1.004 Se1.066 Se1.037       2.39260627      0.00074950      0.02923523      0.00002191
--

   (Skipping property calculation,
    use PROP keyword to activate)
--


  Total CASPT2 energies:
::    CASPT2 Root  1     Total energy:   -109.35814085
::    CASPT2 Root  2     Total energy:   -108.91926047
::    CASPT2 Root  3     Total energy:   -108.88126273
::    CASPT2 Root  4     Total energy:   -108.86646066
::    CASPT2 Root  5     Total energy:   -108.76376104
::    CASPT2 Root  6     Total energy:   -108.76376159
::    CASPT2 Root  7     Total energy:   -108.75994105
::    CASPT2 Root  8     Total energy:   -108.75994085
::    CASPT2 Root  9     Total energy:   -108.86490955
::    CASPT2 Root 10     Total energy:   -108.84577645


++ Multi-State CASPT2 section:
********************************************************************************
  MULTI-STATE CASPT2 SECTION
--------------------------------------------------------------------------------

  Output diagonal energies have been shifted. Add   -109.00000000000000     

  Effective Hamiltonian matrix (Symmetric):

                1               2               3               4               5
   1        -0.35814085
   2        -0.00000000      0.08073953
   3         0.00000000      0.00000118      0.11873727
   4         0.00000000      0.00000856     -0.00028652      0.13353934
   5        -0.00000000     -0.00000002      0.00000000     -0.00000000      0.23623896
   6         0.00000000     -0.00000000     -0.00000000      0.00000000      0.00000000
   7         0.00000000     -0.00000000     -0.00000000      0.00000000     -0.00000001
   8         0.00000000      0.00000000      0.00000000      0.00000000     -0.00000000
   9        -0.00000000     -0.00000000     -0.00000000     -0.00000000     -0.00000000
  10        -0.00000007      0.00000000     -0.00000000     -0.00000000      0.00000000

                6               7               8               9              10
   6         0.23623841
   7        -0.00000000      0.24005895
   8         0.00000001      0.00000000      0.24005915
   9        -0.00000000     -0.00000000     -0.00000000      0.13509045
  10        -0.00000000      0.00000000     -0.00000000      0.00005132      0.15422355

       Total MS-CASPT2 energies:
::    MS-CASPT2 Root  1     Total energy:   -109.35814085
::    MS-CASPT2 Root  2     Total energy:   -108.91926047
::    MS-CASPT2 Root  3     Total energy:   -108.88126827
::    MS-CASPT2 Root  4     Total energy:   -108.86645511
::    MS-CASPT2 Root  5     Total energy:   -108.86490969
::    MS-CASPT2 Root  6     Total energy:   -108.84577632
::    MS-CASPT2 Root  7     Total energy:   -108.76376159
::    MS-CASPT2 Root  8     Total energy:   -108.76376104
::    MS-CASPT2 Root  9     Total energy:   -108.75994105
::    MS-CASPT2 Root 10     Total energy:   -108.75994085

       Eigenvectors:
            1.00000000     -0.00000000      0.00000000      0.00000000     -0.00000000
            0.00000000      0.99999999      0.00003552      0.00016164     -0.00000001
           -0.00000000     -0.00003238      0.99981285     -0.01934588     -0.00000007
           -0.00000000     -0.00016230      0.01934587      0.99981284     -0.00000052
            0.00000000      0.00000015     -0.00000001      0.00000001      0.00000001
           -0.00000000      0.00000002      0.00000002     -0.00000002      0.00000000
           -0.00000000      0.00000000      0.00000000     -0.00000000      0.00000001
           -0.00000000     -0.00000001     -0.00000000     -0.00000001      0.00000000
            0.00000000      0.00000001      0.00000008      0.00000052      0.99999640
            0.00000014     -0.00000000      0.00000003      0.00000000     -0.00268210

           -0.00000014      0.00000000     -0.00000000      0.00000000      0.00000000
            0.00000000     -0.00000002     -0.00000015     -0.00000000      0.00000001
           -0.00000003     -0.00000002      0.00000001     -0.00000000      0.00000000
           -0.00000000      0.00000002     -0.00000001      0.00000000      0.00000001
           -0.00000001     -0.00000192      1.00000000     -0.00000283     -0.00000001
            0.00000001      1.00000000      0.00000192     -0.00000022      0.00000348
           -0.00000000      0.00000022      0.00000283      0.99999986      0.00052045
            0.00000001     -0.00000348      0.00000000     -0.00052045      0.99999986
            0.00268210     -0.00000000     -0.00000001     -0.00000001     -0.00000000
            0.99999640     -0.00000001      0.00000001      0.00000000     -0.00000001

--

  THE ORIGINAL CI ARRAYS ARE NOW MIXED AS LINEAR
  COMBINATIONS, GIVEN BY THE EIGENVECTORS.
  A NEW JOBIPH FILE NAMED 'JOBMIX' IS PREPARED.
********************************************************************************

++ Mixed CI coefficients:
  The CI coefficients for the MIXED state nr.   1
--------------------------------------------------------------------------------
 CI COEFFICIENTS LARGER THAN  0.50D-01
  Occupation of active orbitals, and spin coupling
  of open shells. (u,d: Spin up or down).
  SGUGA info is (Midvert:IsyUp:UpperWalk/LowerWalk)
        Conf  SGUGA info        Occupation     Coefficient         Weight
           1  ( 1:1:   1/   1)   2200000000      -0.968293       0.937591
           4  ( 1:1:   1/   4)   2020000000       0.117547       0.013817
           5  ( 1:1:   1/   5)   ud20000000       0.058403       0.003411
           9  ( 1:1:   1/   9)   20ud000000      -0.058403       0.003411
          10  ( 1:1:   1/  10)   udud000000       0.081708       0.006676
          11  ( 1:1:   1/  11)   02ud000000       0.058403       0.003411
          12  ( 1:1:   1/  12)   uudd000000       0.099540       0.009908
          16  ( 1:1:   1/  16)   ud02000000      -0.058403       0.003411
          17  ( 1:1:   1/  17)   0202000000       0.117547       0.013817

  The CI coefficients for the MIXED state nr.   2
--------------------------------------------------------------------------------
 CI COEFFICIENTS LARGER THAN  0.50D-01
  Occupation of active orbitals, and spin coupling
  of open shells. (u,d: Spin up or down).
  SGUGA info is (Midvert:IsyUp:UpperWalk/LowerWalk)
        Conf  SGUGA info        Occupation     Coefficient         Weight
           2  ( 1:1:   1/   2)   2ud0000000      -0.270159       0.072986
           3  ( 1:1:   1/   3)   u2d0000000       0.647355       0.419069
           7  ( 1:1:   1/   7)   2u0d000000      -0.647540       0.419308
           8  ( 1:1:   1/   8)   u20d000000      -0.270301       0.073063
          14  ( 1:1:   1/  14)   0u2d000000      -0.080576       0.006493
          18  ( 1:1:   1/  18)   u0d2000000       0.080593       0.006495

  The CI coefficients for the MIXED state nr.   3
--------------------------------------------------------------------------------
 CI COEFFICIENTS LARGER THAN  0.50D-01
  Occupation of active orbitals, and spin coupling
  of open shells. (u,d: Spin up or down).
  SGUGA info is (Midvert:IsyUp:UpperWalk/LowerWalk)
        Conf  SGUGA info        Occupation     Coefficient         Weight
           2  ( 1:1:   1/   2)   2ud0000000      -0.637701       0.406662
           3  ( 1:1:   1/   3)   u2d0000000      -0.298499       0.089102
           7  ( 1:1:   1/   7)   2u0d000000      -0.298545       0.089129
           8  ( 1:1:   1/   8)   u20d000000       0.637681       0.406638
          13  ( 1:1:   1/  13)   u02d000000       0.057861       0.003348
          19  ( 1:1:   1/  19)   0ud2000000      -0.057858       0.003348

  The CI coefficients for the MIXED state nr.   4
--------------------------------------------------------------------------------
 CI COEFFICIENTS LARGER THAN  0.50D-01
  Occupation of active orbitals, and spin coupling
  of open shells. (u,d: Spin up or down).
  SGUGA info is (Midvert:IsyUp:UpperWalk/LowerWalk)
        Conf  SGUGA info        Occupation     Coefficient         Weight
           2  ( 1:1:   1/   2)   2ud0000000      -0.298566       0.089141
           3  ( 1:1:   1/   3)   u2d0000000       0.637796       0.406783
           7  ( 1:1:   1/   7)   2u0d000000       0.637586       0.406516
           8  ( 1:1:   1/   8)   u20d000000       0.298478       0.089089
          14  ( 1:1:   1/  14)   0u2d000000      -0.057873       0.003349
          18  ( 1:1:   1/  18)   u0d2000000      -0.057846       0.003346

  The CI coefficients for the MIXED state nr.   5
--------------------------------------------------------------------------------
 CI COEFFICIENTS LARGER THAN  0.50D-01
  Occupation of active orbitals, and spin coupling
  of open shells. (u,d: Spin up or down).
  SGUGA info is (Midvert:IsyUp:UpperWalk/LowerWalk)
        Conf  SGUGA info        Occupation     Coefficient         Weight
          52  ( 2:1:   2/   1)   2u0000d000       0.446436       0.199305
          53  ( 2:1:   3/   1)   2u00000d00      -0.529607       0.280483
          57  ( 2:1:   2/   2)   u20000d000      -0.529607       0.280483
          58  ( 2:1:   3/   2)   u200000d00      -0.446436       0.199305
          82  ( 2:1:   2/   7)   u02000d000       0.086395       0.007464
         112  ( 2:1:   2/  13)   0udu00d000       0.077179       0.005957
         128  ( 2:1:   3/  16)   u0ud000d00      -0.080049       0.006408
         143  ( 2:1:   3/  19)   0u02000d00      -0.086395       0.007464

  The CI coefficients for the MIXED state nr.   6
--------------------------------------------------------------------------------
 CI COEFFICIENTS LARGER THAN  0.50D-01
  Occupation of active orbitals, and spin coupling
  of open shells. (u,d: Spin up or down).
  SGUGA info is (Midvert:IsyUp:UpperWalk/LowerWalk)
        Conf  SGUGA info        Occupation     Coefficient         Weight
          52  ( 2:1:   2/   1)   2u0000d000       0.529607       0.280483
          53  ( 2:1:   3/   1)   2u00000d00       0.446436       0.199305
          57  ( 2:1:   2/   2)   u20000d000       0.446436       0.199305
          58  ( 2:1:   3/   2)   u200000d00      -0.529607       0.280483
          83  ( 2:1:   3/   7)   u020000d00       0.086249       0.007439
         113  ( 2:1:   3/  13)   0udu000d00       0.077282       0.005972
         127  ( 2:1:   2/  16)   u0ud00d000       0.080227       0.006436
         142  ( 2:1:   2/  19)   0u0200d000       0.086249       0.007439

  The CI coefficients for the MIXED state nr.   7
--------------------------------------------------------------------------------
 CI COEFFICIENTS LARGER THAN  0.50D-01
  Occupation of active orbitals, and spin coupling
  of open shells. (u,d: Spin up or down).
  SGUGA info is (Midvert:IsyUp:UpperWalk/LowerWalk)
        Conf  SGUGA info        Occupation     Coefficient         Weight
          51  ( 2:1:   1/   1)   2u000d0000      -0.415948       0.173013
          56  ( 2:1:   1/   2)   u2000d0000       0.887147       0.787030
          81  ( 2:1:   1/   7)   u0200d0000      -0.129968       0.016892
          86  ( 2:1:   1/   8)   0u200d0000      -0.055067       0.003032
         106  ( 2:1:   1/  12)   u0du0d0000       0.051576       0.002660
         111  ( 2:1:   1/  13)   0udu0d0000      -0.118856       0.014127

  The CI coefficients for the MIXED state nr.   8
--------------------------------------------------------------------------------
 CI COEFFICIENTS LARGER THAN  0.50D-01
  Occupation of active orbitals, and spin coupling
  of open shells. (u,d: Spin up or down).
  SGUGA info is (Midvert:IsyUp:UpperWalk/LowerWalk)
        Conf  SGUGA info        Occupation     Coefficient         Weight
          51  ( 2:1:   1/   1)   2u000d0000      -0.887147       0.787030
          56  ( 2:1:   1/   2)   u2000d0000      -0.415948       0.173013
         126  ( 2:1:   1/  16)   u0ud0d0000      -0.116007       0.013458
         136  ( 2:1:   1/  18)   u0020d0000       0.055067       0.003032
         141  ( 2:1:   1/  19)   0u020d0000      -0.129968       0.016892

  The CI coefficients for the MIXED state nr.   9
--------------------------------------------------------------------------------
 CI COEFFICIENTS LARGER THAN  0.50D-01
  Occupation of active orbitals, and spin coupling
  of open shells. (u,d: Spin up or down).
  SGUGA info is (Midvert:IsyUp:UpperWalk/LowerWalk)
        Conf  SGUGA info        Occupation     Coefficient         Weight
          21  ( 1:1:   1/  21)   2u00d00000       0.887188       0.787103
          22  ( 1:1:   1/  22)   u200d00000       0.415278       0.172456
          36  ( 1:1:   1/  36)   u0udd00000       0.115948       0.013444
          38  ( 1:1:   1/  38)   u002d00000      -0.055028       0.003028
          39  ( 1:1:   1/  39)   0u02d00000       0.129905       0.016875

  The CI coefficients for the MIXED state nr.  10
--------------------------------------------------------------------------------
 CI COEFFICIENTS LARGER THAN  0.50D-01
  Occupation of active orbitals, and spin coupling
  of open shells. (u,d: Spin up or down).
  SGUGA info is (Midvert:IsyUp:UpperWalk/LowerWalk)
        Conf  SGUGA info        Occupation     Coefficient         Weight
          21  ( 1:1:   1/  21)   2u00d00000      -0.415278       0.172456
          22  ( 1:1:   1/  22)   u200d00000       0.887188       0.787103
          27  ( 1:1:   1/  27)   u020d00000      -0.129905       0.016875
          28  ( 1:1:   1/  28)   0u20d00000      -0.055028       0.003028
          32  ( 1:1:   1/  32)   u0dud00000       0.051531       0.002655
          33  ( 1:1:   1/  33)   0udud00000      -0.118818       0.014118

--

--- Stop Module: caspt2 at Tue Aug 11 00:23:43 2020 /rc=_RC_ALL_IS_WELL_ ---
*** files: xmldump
    saved to directory /home/gayverjr/OpenCAP/molcas_example
--- Module caspt2 spent 7 minutes 48 seconds ---

.##################.
.# Happy landing! #.
.##################.

    Timing: Wall=1235.58 User=12393.21 System=297.17
