******************************************************
*** WorkDir and CurrDir are the same, not cleaned! ***
******************************************************
   This run of MOLCAS is using the pymolcas driver

                             OPE
                             OPE          NMOL  CASOP  ENMOLC A   SO
                 OPE        NMOLC        AS  OP EN  MO LC     AS  OP
                OPENM       OL CA        SO  PE NM  OL CA     SOP EN
                OP EN      MO   LC       AS  OP ENMOL  CASO   PENMOL
                OP  EN     MO   LC       AS  OP EN     MO     LC ASO
               OP   E  NMOL  C  AS       OP  EN MO     LC     AS  OP
               OP  E   NMO   LC AS        OPEN  MO     LCASOP EN   M
               O  PEN   MO  LCA  SO
            OPE   NMO   L   CAS    OP
        OPENMOL  CASOP     ENMOL   CASOPE
     OPENMOLCA   SOPENMOLCASOPEN   MOLCASOPE
    OPENMOLCAS   OP           EN   MOL    CAS
    OPENMOLCAS       OP  ENM        O     LCA
    OPENMOLCAS    OPEN  MOLCASO     P  E  NMO
    OPENMOLCAS     OP               E  N  MOL
    OPENMOLCA   SO           PENM   O  L  CAS    OPEN    MO    LCAS
    OPENMOLCA   SOP           ENM   O  L  CAS   OP  EN  MOLC  AS   O
    OPENMOLCA   SOPE           NM      O  LCA   S      OP  EN MO
    OPENMOLC                AS         O  PEN   M      OL  CA  SOPE
    OPENMO        LCASOPE  NMOL        C  ASO   P      ENMOLC     AS
    OPE     NMO      LCA  SO     P     E   NM   OL  CA SO  PE N   MO
          OPENMOLCA            SOPE   NMO        LCAS  O    P  ENMO
     OPENMOLCASOPENMOLCASOPENMOLCASOPENMOLCA
        OPENMOLCASOPENMOLCASOPENMOLCASOPE
            OPENMOLCASOPENMOLCASOPENM
               OPENMOLCASOPENMOLCA        version: 19.11
                   OPENMOLCASO
                       OPE                tag: 1162-ga18ab34

 OpenMolcas is free software; you can redistribute it and/or modify it
 under the terms of the GNU Lesser General Public License version 2.1.
 OpenMolcas is distributed in the hope that it will be useful, but it
 is provided "as is" and without any express or implied warranties.
 For more details see the full text of the license in the file
 LICENSE or in <http://www.gnu.org/licenses/>.

                 Copyright (C) The OpenMolcas Authors
           For the author list and the recommended citation,
                   consult the file CONTRIBUTORS.md

           *************************************************
           * pymolcas version py2.08                       *
           *   build bed633bbe89b7744c23cdbfc3f64969c      *
           *   (after the EMIL interpreter by V. Veryazov) *
           *************************************************

configuration info
------------------
C Compiler ID: GNU
C flags: -std=gnu99 -fopenmp
Fortran Compiler ID: GNU
Fortran flags: -fno-aggressive-loop-optimizations -cpp -fdefault-integer-8 -fopenmp
Definitions: _MOLCAS_;_I8_;_LINUX_;_MKL_;_DMRG_
Parallel: OFF (GA=OFF)


   ----------------------------------------------------------------------
  |
  |             Project: nosymm
  |      Submitted from: /scratch/gayverjr/nosymm.2624742926
  |        Scratch area: /scratch/gayverjr/nosymm.2624742926
  |     Save outputs to: /home/gayverjr/OpenCAP/molcas_example
  |              Molcas: /home/qcsoftware/OpenMolcas/qcmaquis_build/build
  |
  | Scratch area is NOT empty
  |
  |      MOLCAS_DRIVER = /home/qcsoftware/bin/pymolcas
  | MOLCAS_NEW_WORKDIR = YES
  |      MOLCAS_NPROCS = 16
  |      MOLCAS_SOURCE = /home/qcsoftware/OpenMolcas/Molcas_src
  |   MOLCAS_STRUCTURE = 0
  |
   ----------------------------------------------------------------------

++ ---------   Input file   ---------

&GATEWAY
Expert
Basis set
 N.aug-cc-pvtz
 N1  0.0  0.0  1.039
 N2  0.0  0.0  -1.039
End of Basis
Basis set
X ..... / inline
   0.00   2
    3    3
               0.0288
               0.0144
               0.0072
      1.00000000             0.00000000             0.00000000
      0.00000000             1.00000000             0.00000000
      0.00000000             0.00000000             1.00000000
     3    3
               0.02455
               0.012275
               0.0061375
     1.00000000             0.00000000             0.00000000
     0.00000000             1.00000000             0.00000000
     0.00000000             0.00000000             1.00000000
     3    3
               0.0755
               0.03775
               0.018875
      1.000000E+00           0.000000E+00           0.000000E+00           0.00000000
      0.000000E+00           1.000000E+00           0.000000E+00           0.00000000
      0.000000E+00           0.000000E+00           1.000000E+00           0.00000000
X1  0.000  0.000  0.000
End of basis

&SEWARD

&SCF

&MBPT2
PRPT

>>> COPY /home/gayverjr/OpenCAP/molcas_example/$Project.MP2Orb INPORB

&RASSCF
LUMORB
Title = cas 5,13 test
Charge = 0
Ras2=4
NActEl=4,0,0
CIROOT= 10 10 1

>>> COPY /home/gayverjr/OpenCAP/molcas_example/$Project.RasOrb INPORB

&RASSCF
LUMORB
Charge = -1
SPIN = 2
Ras2=10
NActEl=5,0,0
CIROOT= 10 10 1
Alter = 6
1 10 18
1 11 19
1 12 28
1 13 29
1 14 37
1 15 38

&CASPT2
MAXIter = 50
XMULtistate = all

&RASSI
TRD1

>>> COPY /home/gayverjr/OpenCAP/molcas_example/$Project.RasOrb INPORB

&RASSCF
LUMORB
Inactive = 5
Spin = 1
Charge = 0
Ras2=10
CIONLY
NActEl=4,0,0
CIROOT= 10 10 1

&CASPT2
MAXIter = 50
XMULtistate = all

-- ----------------------------------

--- Start Module: gateway at Thu Aug 20 06:55:45 2020 ---

()()()()()()()()()()()()()()()()()()()()()()()()()()()()()()()()()()()()()()()()()()()()()()()()()()

                                              &GATEWAY

                                   only a single process is used
                       available to each process: 20 GB of memory, 16 threads
                                             pid: 43602
()()()()()()()()()()()()()()()()()()()()()()()()()()()()()()()()()()()()()()()()()()()()()()()()()()

 ###############################################################################
 ###############################################################################
 ###                                                                         ###
 ###                                                                         ###
 ###    WARNING:  EXPERT option is ON!                                       ###
 ###                                                                         ###
 ###                                                                         ###
 ###############################################################################
 ###############################################################################

++    Symmetry information:
      ---------------------

                    Character Table for C1 

                             E  
                    a        1  x, y, xy, Rz, z, xz, Ry, yz, Rx, I
--


++    Basis set information:
      ----------------------


      Basis set label: N.AUG-CC-PVTZ.........

      Electronic valence basis set:
      ------------------
      Associated Effective Charge   7.000000 au
      Associated Actual Charge      7.000000 au
      Nuclear Model: Point charge

      Shell  nPrim  nBasis  Cartesian Spherical Contaminant
         s      11       5        X                  
         p       6       4        X                  
         d       3       3                 X         
         f       2       2                 X         


      Basis set label: X...............................................................................

      Electronic valence basis set:
      ------------------
      Associated Effective Charge   0.000000 au
      Associated Actual Charge      0.000000 au
      Nuclear Model: Point charge

      Shell  nPrim  nBasis  Cartesian Spherical Contaminant
         s       3       3        X                  
         p       3       3        X                  
         d       3       3                 X         
--


++    Molecular structure info:
      -------------------------

                    ************************************************ 
                    **** Cartesian Coordinates / Bohr, Angstrom **** 
                    ************************************************ 

     Center  Label                x              y              z                     x              y              z
        1      N1               0.000000       0.000000       1.039000              0.000000       0.000000       0.549815
        2      N2               0.000000       0.000000      -1.039000              0.000000       0.000000      -0.549815
        3      X1               0.000000       0.000000       0.000000              0.000000       0.000000       0.000000

                    *************************************** 
                    *    InterNuclear Distances / Bohr    * 
                    *************************************** 

               1 N1            2 N2            3 X1    
    1 N1       0.000000
    2 N2       2.078000        0.000000
    3 X1       1.039000        1.039000        0.000000

                    ******************************************* 
                    *    InterNuclear Distances / Angstrom    * 
                    ******************************************* 

               1 N1            2 N2            3 X1    
    1 N1       0.000000
    2 N2       1.099630        0.000000
    3 X1       0.549815        0.549815        0.000000

                    ************************************** 
                    *    Valence Bond Angles / Degree    * 
                    ************************************** 
                          Atom centers                 Phi
                      2 N2       1 N1       3 X1         0.00
                      1 N1       2 N2       3 X1         0.00
                      1 N1       3 X1       2 N2       180.00
--


            Nuclear Potential Energy             23.58036574 au

--- Stop Module: gateway at Thu Aug 20 06:55:47 2020 /rc=_RC_ALL_IS_WELL_ ---
*** files: xmldump
    saved to directory /home/gayverjr/OpenCAP/molcas_example
--- Module gateway spent 1 second ---

--- Start Module: seward at Thu Aug 20 06:55:47 2020 ---

()()()()()()()()()()()()()()()()()()()()()()()()()()()()()()()()()()()()()()()()()()()()()()()()()()

                                              &SEWARD

                                   only a single process is used
                       available to each process: 20 GB of memory, 16 threads
                                             pid: 43623
()()()()()()()()()()()()()()()()()()()()()()()()()()()()()()()()()()()()()()()()()()()()()()()()()()

               SEWARD will generate:
                  Multipole Moment integrals up to order  2
                  Kinetic Energy integrals
                  Nuclear Attraction integrals (point charge)
                  One-Electron Hamiltonian integrals
                  Velocity integrals
                  Orbital angular momentum around ( 0.0000  0.0000  0.0000 )
                  Velocity quadrupole around ( 0.0000  0.0000  0.0000 )
                  Two-Electron Repulsion integrals

                   Integrals are discarded if absolute value <: 0.10E-13
                   Integral cutoff threshold is set to       <: 0.10E-15

            Nuclear Potential Energy             23.58036574 au


      Basis set specifications :
      Symmetry species         a  
      Basis functions          119


  Input file to MOLDEN was generated!

--- Stop Module: seward at Thu Aug 20 06:55:51 2020 /rc=_RC_ALL_IS_WELL_ ---
*** files: nosymm.GssOrb nosymm.guessorb.h5 nosymm.guessorb.molden xmldump
    saved to directory /home/gayverjr/OpenCAP/molcas_example
--- Module seward spent 4 seconds ---

*** symbolic link created: INPORB -> nosymm.GssOrb
--- Start Module: scf at Thu Aug 20 06:55:51 2020 ---

()()()()()()()()()()()()()()()()()()()()()()()()()()()()()()()()()()()()()()()()()()()()()()()()()()

                                                &SCF

                                   only a single process is used
                       available to each process: 20 GB of memory, 16 threads
                                             pid: 43704
()()()()()()()()()()()()()()()()()()()()()()()()()()()()()()()()()()()()()()()()()()()()()()()()()()

++    Input section:
      --------------

      Header of the integral files:
      
       Integrals generated by seward 4.2.0  , Thu Aug 20 06:55:47 2020


      Cartesian coordinates in Angstrom:
      -----------------------------------------------------
      No.  Label        X            Y            Z        
      -----------------------------------------------------
       1   N1         0.00000000   0.00000000   0.54981512
       2   N2         0.00000000   0.00000000  -0.54981512
       3   X1         0.00000000   0.00000000   0.00000000
      -----------------------------------------------------
      Nuclear repulsion energy =   23.58036574
--

++    Orbital specifications:
      -----------------------

      Symmetry species               1
                                     a
      Frozen orbitals                0
      Occupied orbitals              7
      Secondary orbitals           112
      Deleted orbitals               0
      Total number of orbitals     119
      Number of basis functions    119
--

      Molecular charge                           0.000

++    Optimization specifications:
      ----------------------------

      SCF Algorithm: Conventional
      Minimized density differences are used
      Number of density matrices in core                5
      Maximum number of NDDO SCF iterations           400
      Maximum number of HF SCF iterations             400
      Threshold for SCF energy change            0.10E-08
      Threshold for density matrix               0.10E-03
      Threshold for Fock matrix                  0.15E-03
      Threshold for linear dependence            0.10E-08
      Threshold at which DIIS is turned on       0.15E+00
      Threshold at which QNR/C2DIIS is turned on 0.75E-01
      Threshold for Norm(delta) (QNR/C2DIIS)     0.20E-04
      DIIS extrapolation of the SCF procedure
      All orbitals punched on: SCFORB
--

      Input vectors read from INPORB
      Orbital file label: *Guess orbitals


++ Convergence information
                                   SCF        iterations: Energy and convergence statistics

Iter     Tot. SCF        One-elec.       Two-elec.     Energy      Max Dij or  Max Fij      DNorm      TNorm      AccCon     Time
         Energy          Energy          Energy        Change      Delta Norm                                                in Sec.
   1  -108.707230664  -191.849085778    59.561489378   0.00E+00    0.16E+00*   0.18E+00*    0.53E+01   0.88E+02   None         2.
   2  -108.969308746  -194.970433876    62.420759393  -0.26E+00*   0.51E-01*   0.48E-01*    0.31E+01   0.89E+02   EDIIS        2.
   3  -108.983355927  -193.973137613    61.409415949  -0.14E-01*   0.12E-01*   0.12E-01*    0.78E+00   0.89E+02   EDIIS        2.
   4  -108.984356063  -194.229605454    61.664883654  -0.10E-02*   0.46E-02*   0.27E-02*    0.12E+00   0.89E+02   c2DIIS       2.
   5  -108.984436673  -194.165371510    61.600569101  -0.81E-04*   0.13E-02*   0.70E-03*    0.14E-01   0.89E+02   QNRc2DIIS    2.
   6  -108.984442288  -194.169070639    61.604262614  -0.56E-05*   0.67E-03*   0.23E-03*    0.19E-02   0.89E+02   QNRc2DIIS    2.
   7  -108.984442929  -194.166733167    61.601924502  -0.64E-06*   0.45E-04*   0.31E-04     0.18E-03   0.89E+02   QNRc2DIIS    2.
   8  -108.984442936  -194.167341042    61.602532370  -0.69E-08*   0.57E-05    0.30E-05     0.20E-04   0.89E+02   QNRc2DIIS    2.
   9  -108.984442936  -194.167342743    61.602534071  -0.81E-10    0.33E-06    0.12E-06     0.78E-04   0.89E+02   QNRc2DIIS    2.

       Convergence after  9 Macro Iterations
--

 *****************************************************************************************************************************
 *                                                                                                                           *
 *                                             SCF/KS-DFT Program, Final results                                             *
 *                                                                                                                           *
 *                                                                                                                           *
 *                                                                                                                           *
 *                                                       Final Results                                                       *
 *                                                                                                                           *
 *****************************************************************************************************************************

::    Total SCF energy                               -108.9844429358
      One-electron energy                            -194.1673427433
      Two-electron energy                              61.6025340712
      Nuclear repulsion energy                         23.5803657363
      Kinetic energy (interpolated)                   108.7233112709
      Virial theorem                                    1.0024018001
      Total spin, S(S+1)                                0.0000000000
      Total spin, S                                     0.0000000000
      Max non-diagonal density matrix element           0.0000002036
      Max non-diagonal Fock matrix element              0.0000000423


      All orbitals with orbital energies smaller than  E(LUMO)+0.5 are printed

++    Molecular orbitals:
      -------------------

      Title: SCF orbitals

      Molecular orbitals for symmetry species 1: a  

          Orbital            1         2         3         4         5         6         7         8         9        10    
          Energy          -15.6860  -15.6825   -1.4709   -0.7802   -0.6343   -0.6136   -0.6136    0.0090    0.0118    0.0118
          Occ. No.          2.0000    2.0000    2.0000    2.0000    2.0000    2.0000    2.0000    0.0000    0.0000    0.0000

        1 N1     1s         0.7070   -0.7067   -0.0168   -0.0044   -0.0046    0.0000    0.0000   -0.0006   -0.0000   -0.0000
        2 N1     1s         0.0014    0.0011    0.6354   -0.6580   -0.2410   -0.0000    0.0000   -0.0230   -0.0000   -0.0000
        3 N1     1s         0.0009   -0.0005   -0.0034   -0.0002    0.0008    0.0000    0.0000    0.0001    0.0000   -0.0000
        4 N1     1s         0.0013   -0.0216   -0.1264   -0.2218   -0.1595   -0.0000    0.0000    0.0005   -0.0000   -0.0000
        5 N1     1s         0.0019   -0.0078    0.0121   -0.0535   -0.0998    0.0000    0.0000   -1.0076   -0.0000   -0.0000
        6 N1     2px        0.0000   -0.0000   -0.0000    0.0000    0.0000    0.6024    0.1754    0.0000   -0.0002   -0.0091
        7 N1     2px       -0.0000    0.0000   -0.0000   -0.0000   -0.0000   -0.0070   -0.0021    0.0000   -0.0001   -0.0034
        8 N1     2px       -0.0000   -0.0000    0.0000   -0.0000   -0.0000   -0.0353   -0.0103   -0.0000    0.0003    0.0128
        9 N1     2px       -0.0000    0.0000    0.0000   -0.0000    0.0000   -0.0023   -0.0007   -0.0000   -0.0026   -0.0996
       10 N1     2py        0.0000   -0.0000   -0.0000    0.0000    0.0000   -0.1754    0.6024    0.0000   -0.0091    0.0002
       11 N1     2py       -0.0000    0.0000   -0.0000   -0.0000   -0.0000    0.0021   -0.0070   -0.0000   -0.0034    0.0001
       12 N1     2py       -0.0000   -0.0000   -0.0000   -0.0000   -0.0000    0.0103   -0.0353    0.0000    0.0128   -0.0003
       13 N1     2py       -0.0000   -0.0000   -0.0000   -0.0000   -0.0000    0.0007   -0.0023   -0.0000   -0.0996    0.0026
       14 N1     2pz       -0.0051    0.0031   -0.3420   -0.3216   -0.6975   -0.0000    0.0000   -0.0229    0.0000    0.0000
       15 N1     2pz        0.0025   -0.0006    0.0376    0.0223    0.0470    0.0000   -0.0000    0.0020   -0.0000   -0.0000
       16 N1     2pz        0.0035    0.0086    0.1299    0.1157    0.0883    0.0000   -0.0000   -0.0070   -0.0000   -0.0000
       17 N1     2pz        0.0072    0.0018    0.0661    0.0072   -0.1252    0.0000    0.0000   -1.0226   -0.0000   -0.0000
       18 N1     3d2-      -0.0000    0.0000   -0.0000    0.0000    0.0000    0.0000    0.0000   -0.0000   -0.0000    0.0000
       19 N1     3d2-      -0.0000    0.0000   -0.0000   -0.0000    0.0000   -0.0000   -0.0000   -0.0000    0.0000   -0.0000
       20 N1     3d2-       0.0000   -0.0000   -0.0000    0.0000   -0.0000    0.0000    0.0000    0.0000   -0.0000    0.0000
       21 N1     3d1-      -0.0000    0.0000    0.0000   -0.0000   -0.0000    0.0056   -0.0192   -0.0000    0.0004   -0.0000
       22 N1     3d1-      -0.0000    0.0000   -0.0000    0.0000   -0.0000    0.0102   -0.0352    0.0000    0.0007   -0.0000
       23 N1     3d1-      -0.0000    0.0000   -0.0000    0.0000   -0.0000    0.0020   -0.0070   -0.0000    0.0021   -0.0001
       24 N1     3d0        0.0006   -0.0007    0.0202    0.0031    0.0182    0.0000   -0.0000   -0.0001   -0.0000   -0.0000
       25 N1     3d0       -0.0010   -0.0009    0.0154    0.0011    0.0150   -0.0000   -0.0000    0.0009    0.0000    0.0000
       26 N1     3d0       -0.0003   -0.0016   -0.0256   -0.0140   -0.0073   -0.0000   -0.0000   -0.0226    0.0000    0.0000
       27 N1     3d1+      -0.0000    0.0000    0.0000   -0.0000   -0.0000   -0.0192   -0.0056    0.0000    0.0000    0.0004
       28 N1     3d1+      -0.0000    0.0000    0.0000    0.0000   -0.0000   -0.0352   -0.0102   -0.0000    0.0000    0.0007
       29 N1     3d1+       0.0000    0.0000   -0.0000    0.0000   -0.0000   -0.0070   -0.0020    0.0000    0.0001    0.0021
       30 N1     3d2+       0.0000   -0.0000   -0.0000    0.0000    0.0000   -0.0000    0.0000    0.0000   -0.0000    0.0000
       31 N1     3d2+      -0.0000    0.0000    0.0000   -0.0000   -0.0000   -0.0000    0.0000   -0.0000    0.0000   -0.0000
       32 N1     3d2+       0.0000   -0.0000   -0.0000   -0.0000    0.0000   -0.0000    0.0000   -0.0000   -0.0000   -0.0000
       33 N1     4f3-       0.0000    0.0000   -0.0000    0.0000   -0.0000   -0.0000    0.0000    0.0000    0.0000   -0.0000
       34 N1     4f3-      -0.0000   -0.0000    0.0000    0.0000   -0.0000    0.0000   -0.0000   -0.0000   -0.0000    0.0000
       35 N1     4f2-       0.0000    0.0000   -0.0000   -0.0000   -0.0000    0.0000    0.0000    0.0000    0.0000    0.0000
       36 N1     4f2-       0.0000   -0.0000   -0.0000   -0.0000   -0.0000   -0.0000   -0.0000    0.0000   -0.0000    0.0000
       37 N1     4f1-       0.0000   -0.0000   -0.0000   -0.0000    0.0000   -0.0023    0.0078   -0.0000    0.0000   -0.0000
       38 N1     4f1-      -0.0000   -0.0000    0.0000   -0.0000    0.0000   -0.0003    0.0009    0.0000   -0.0005    0.0000
       39 N1     4f0        0.0002    0.0005   -0.0076    0.0011   -0.0058   -0.0000    0.0000   -0.0005   -0.0000   -0.0000
       40 N1     4f0        0.0004    0.0000    0.0050   -0.0002    0.0026    0.0000    0.0000    0.0018   -0.0000   -0.0000
       41 N1     4f1+       0.0000    0.0000   -0.0000   -0.0000    0.0000    0.0078    0.0023    0.0000    0.0000    0.0000
       42 N1     4f1+      -0.0000   -0.0000    0.0000   -0.0000    0.0000    0.0009    0.0003   -0.0000   -0.0000   -0.0005
       43 N1     4f2+      -0.0000   -0.0000   -0.0000    0.0000    0.0000    0.0000   -0.0000   -0.0000   -0.0000   -0.0000
       44 N1     4f2+      -0.0000   -0.0000    0.0000    0.0000    0.0000   -0.0000    0.0000    0.0000   -0.0000    0.0000
       45 N1     4f3+      -0.0000   -0.0000    0.0000   -0.0000    0.0000   -0.0000   -0.0000   -0.0000   -0.0000   -0.0000
       46 N1     4f3+       0.0000    0.0000   -0.0000   -0.0000    0.0000    0.0000    0.0000    0.0000    0.0000    0.0000
       47 N2     1s         0.7070    0.7067   -0.0168    0.0044   -0.0046    0.0000    0.0000   -0.0006   -0.0000   -0.0000
       48 N2     1s         0.0014   -0.0011    0.6354    0.6580   -0.2410   -0.0000    0.0000   -0.0230   -0.0000   -0.0000
       49 N2     1s         0.0009    0.0005   -0.0034    0.0002    0.0008    0.0000    0.0000    0.0001    0.0000    0.0000
       50 N2     1s         0.0013    0.0216   -0.1264    0.2218   -0.1595   -0.0000    0.0000    0.0005    0.0000    0.0000
       51 N2     1s         0.0019    0.0078    0.0121    0.0535   -0.0998    0.0000    0.0000   -1.0076    0.0000    0.0000
       52 N2     2px        0.0000   -0.0000   -0.0000    0.0000    0.0000    0.6024    0.1754   -0.0000   -0.0002   -0.0091
       53 N2     2px        0.0000    0.0000   -0.0000    0.0000   -0.0000   -0.0070   -0.0021   -0.0000   -0.0001   -0.0034
       54 N2     2px       -0.0000    0.0000    0.0000    0.0000   -0.0000   -0.0353   -0.0103    0.0000    0.0003    0.0128
       55 N2     2px        0.0000   -0.0000   -0.0000    0.0000   -0.0000   -0.0023   -0.0007    0.0000   -0.0026   -0.0996
       56 N2     2py        0.0000   -0.0000   -0.0000    0.0000    0.0000   -0.1754    0.6024   -0.0000   -0.0091    0.0002
       57 N2     2py       -0.0000    0.0000   -0.0000    0.0000   -0.0000    0.0021   -0.0070    0.0000   -0.0034    0.0001
       58 N2     2py       -0.0000    0.0000    0.0000    0.0000   -0.0000    0.0103   -0.0353   -0.0000    0.0128   -0.0003
       59 N2     2py        0.0000    0.0000    0.0000    0.0000   -0.0000    0.0007   -0.0023    0.0000   -0.0996    0.0026
       60 N2     2pz        0.0051    0.0031    0.3420   -0.3216    0.6975    0.0000   -0.0000    0.0229   -0.0000   -0.0000
       61 N2     2pz       -0.0025   -0.0006   -0.0376    0.0223   -0.0470   -0.0000    0.0000   -0.0020    0.0000    0.0000
       62 N2     2pz       -0.0035    0.0086   -0.1299    0.1157   -0.0883   -0.0000    0.0000    0.0070    0.0000    0.0000
       63 N2     2pz       -0.0072    0.0018   -0.0661    0.0072    0.1252   -0.0000   -0.0000    1.0226    0.0000    0.0000
       64 N2     3d2-      -0.0000   -0.0000   -0.0000    0.0000   -0.0000   -0.0000   -0.0000    0.0000    0.0000    0.0000
       65 N2     3d2-       0.0000    0.0000    0.0000    0.0000   -0.0000   -0.0000   -0.0000    0.0000   -0.0000    0.0000
       66 N2     3d2-       0.0000   -0.0000   -0.0000    0.0000    0.0000    0.0000   -0.0000   -0.0000   -0.0000   -0.0000
       67 N2     3d1-       0.0000   -0.0000   -0.0000    0.0000    0.0000   -0.0056    0.0192   -0.0000   -0.0004    0.0000
       68 N2     3d1-       0.0000   -0.0000   -0.0000    0.0000    0.0000   -0.0102    0.0352    0.0000   -0.0007    0.0000
       69 N2     3d1-       0.0000    0.0000    0.0000    0.0000    0.0000   -0.0020    0.0070   -0.0000   -0.0021    0.0001
       70 N2     3d0        0.0006    0.0007    0.0202   -0.0031    0.0182    0.0000   -0.0000   -0.0001   -0.0000   -0.0000
       71 N2     3d0       -0.0010    0.0009    0.0154   -0.0011    0.0150   -0.0000   -0.0000    0.0009    0.0000    0.0000
       72 N2     3d0       -0.0003    0.0016   -0.0256    0.0140   -0.0073   -0.0000   -0.0000   -0.0226    0.0000    0.0000
       73 N2     3d1+       0.0000   -0.0000   -0.0000    0.0000    0.0000    0.0192    0.0056   -0.0000   -0.0000   -0.0004
       74 N2     3d1+       0.0000   -0.0000   -0.0000    0.0000    0.0000    0.0352    0.0102   -0.0000   -0.0000   -0.0007
       75 N2     3d1+       0.0000    0.0000    0.0000    0.0000    0.0000    0.0070    0.0020    0.0000   -0.0001   -0.0021
       76 N2     3d2+       0.0000    0.0000    0.0000   -0.0000    0.0000   -0.0000    0.0000   -0.0000   -0.0000    0.0000
       77 N2     3d2+      -0.0000   -0.0000   -0.0000   -0.0000    0.0000   -0.0000    0.0000    0.0000    0.0000   -0.0000
       78 N2     3d2+       0.0000    0.0000    0.0000   -0.0000    0.0000   -0.0000    0.0000    0.0000   -0.0000    0.0000
       79 N2     4f3-       0.0000   -0.0000   -0.0000   -0.0000   -0.0000   -0.0000    0.0000   -0.0000    0.0000    0.0000
       80 N2     4f3-      -0.0000    0.0000    0.0000   -0.0000   -0.0000    0.0000   -0.0000    0.0000   -0.0000   -0.0000
       81 N2     4f2-      -0.0000   -0.0000   -0.0000    0.0000    0.0000   -0.0000   -0.0000   -0.0000   -0.0000   -0.0000
       82 N2     4f2-       0.0000   -0.0000   -0.0000    0.0000    0.0000    0.0000    0.0000    0.0000   -0.0000    0.0000
       83 N2     4f1-       0.0000   -0.0000   -0.0000    0.0000    0.0000   -0.0023    0.0078    0.0000    0.0000   -0.0000
       84 N2     4f1-      -0.0000    0.0000    0.0000    0.0000    0.0000   -0.0003    0.0009   -0.0000   -0.0005    0.0000
       85 N2     4f0       -0.0002    0.0005    0.0076    0.0011    0.0058    0.0000   -0.0000    0.0005    0.0000    0.0000
       86 N2     4f0       -0.0004    0.0000   -0.0050   -0.0002   -0.0026   -0.0000   -0.0000   -0.0018    0.0000    0.0000
       87 N2     4f1+       0.0000   -0.0000   -0.0000    0.0000    0.0000    0.0078    0.0023   -0.0000    0.0000    0.0000
       88 N2     4f1+       0.0000    0.0000    0.0000    0.0000    0.0000    0.0009    0.0003   -0.0000   -0.0000   -0.0005
       89 N2     4f2+       0.0000   -0.0000   -0.0000   -0.0000    0.0000   -0.0000    0.0000   -0.0000    0.0000   -0.0000
       90 N2     4f2+       0.0000    0.0000    0.0000    0.0000   -0.0000    0.0000   -0.0000    0.0000   -0.0000    0.0000
       91 N2     4f3+      -0.0000    0.0000    0.0000    0.0000    0.0000   -0.0000   -0.0000    0.0000   -0.0000   -0.0000
       92 N2     4f3+       0.0000   -0.0000   -0.0000    0.0000    0.0000    0.0000    0.0000   -0.0000    0.0000    0.0000
       93 X1     1s        -0.0036    0.0000   -0.0270    0.0000    0.1254   -0.0000   -0.0000    2.7075   -0.0000    0.0000
       94 X1     1s        -0.0002   -0.0000   -0.0030   -0.0000   -0.0272    0.0000    0.0000   -2.9981    0.0000    0.0000
       95 X1     1s         0.0002    0.0000    0.0015    0.0000    0.0054   -0.0000   -0.0000    2.6093   -0.0000   -0.0000
       96 X1     2px        0.0000   -0.0000   -0.0000    0.0000    0.0000    0.0227    0.0066   -0.0000    0.0165    0.6300
       97 X1     2px       -0.0000    0.0000    0.0000   -0.0000   -0.0000   -0.0154   -0.0045    0.0000   -0.0353   -1.3462
       98 X1     2px        0.0000   -0.0000   -0.0000    0.0000    0.0000    0.0051    0.0015   -0.0000    0.0471    1.7960
       99 X1     2py        0.0000   -0.0000   -0.0000    0.0000    0.0000   -0.0066    0.0227    0.0000    0.6300   -0.0165
      100 X1     2py       -0.0000    0.0000    0.0000   -0.0000   -0.0000    0.0045   -0.0154   -0.0000   -1.3462    0.0353
      101 X1     2py        0.0000   -0.0000   -0.0000    0.0000    0.0000   -0.0015    0.0051    0.0000    1.7960   -0.0471
      102 X1     2pz       -0.0000   -0.0005   -0.0000   -0.0064    0.0000    0.0000    0.0000   -0.0000   -0.0000   -0.0000
      103 X1     2pz        0.0000    0.0001    0.0000    0.0041   -0.0000   -0.0000   -0.0000    0.0000   -0.0000   -0.0000
      104 X1     2pz       -0.0000   -0.0000   -0.0000   -0.0013    0.0000    0.0000    0.0000   -0.0000    0.0000    0.0000
      105 X1     3d2-      -0.0000    0.0000    0.0000   -0.0000   -0.0000   -0.0000   -0.0000    0.0000    0.0000    0.0000
      106 X1     3d2-       0.0000   -0.0000   -0.0000   -0.0000    0.0000    0.0000    0.0000    0.0000   -0.0000   -0.0000
      107 X1     3d2-      -0.0000    0.0000    0.0000   -0.0000   -0.0000   -0.0000   -0.0000   -0.0000    0.0000    0.0000
      108 X1     3d1-       0.0000   -0.0000    0.0000   -0.0000   -0.0000    0.0000    0.0000    0.0000    0.0000   -0.0000
      109 X1     3d1-       0.0000    0.0000    0.0000    0.0000   -0.0000    0.0000   -0.0000    0.0000    0.0000   -0.0000
      110 X1     3d1-      -0.0000   -0.0000   -0.0000   -0.0000    0.0000   -0.0000    0.0000   -0.0000   -0.0000    0.0000
      111 X1     3d0       -0.0023   -0.0000    0.0038    0.0000    0.0516   -0.0000   -0.0000    0.2027    0.0000    0.0000
      112 X1     3d0       -0.0025   -0.0000   -0.0325    0.0000    0.0346   -0.0000   -0.0000    0.4974    0.0000    0.0000
      113 X1     3d0        0.0003    0.0000    0.0051   -0.0000   -0.0013    0.0000    0.0000   -0.1152   -0.0000   -0.0000
      114 X1     3d1+       0.0000   -0.0000   -0.0000   -0.0000   -0.0000   -0.0000   -0.0000    0.0000   -0.0000   -0.0000
      115 X1     3d1+       0.0000   -0.0000   -0.0000    0.0000   -0.0000   -0.0000   -0.0000    0.0000   -0.0000   -0.0000
      116 X1     3d1+      -0.0000    0.0000    0.0000   -0.0000    0.0000    0.0000    0.0000   -0.0000    0.0000    0.0000
      117 X1     3d2+      -0.0000    0.0000    0.0000    0.0000   -0.0000    0.0000   -0.0000    0.0000    0.0000   -0.0000
      118 X1     3d2+       0.0000   -0.0000   -0.0000   -0.0000    0.0000   -0.0000    0.0000    0.0000   -0.0000   -0.0000
      119 X1     3d2+      -0.0000    0.0000    0.0000    0.0000   -0.0000    0.0000   -0.0000   -0.0000    0.0000    0.0000

          Orbital           11        12        13        14        15        16        17        18        19        20    
          Energy            0.0119    0.0411    0.0411    0.0415    0.0416    0.0493    0.0493    0.0508    0.0538    0.0538
          Occ. No.          0.0000    0.0000    0.0000    0.0000    0.0000    0.0000    0.0000    0.0000    0.0000    0.0000

        1 N1     1s        -0.0006   -0.0000   -0.0000    0.0003    0.0002    0.0000    0.0000   -0.0071    0.0000   -0.0000
        2 N1     1s        -0.0115    0.0000   -0.0000   -0.0318    0.0510    0.0000    0.0000   -0.0327    0.0000   -0.0000
        3 N1     1s         0.0001    0.0000    0.0000   -0.0012    0.0014   -0.0000    0.0000   -0.0037   -0.0000    0.0000
        4 N1     1s         0.0825    0.0000   -0.0000   -0.2056    0.0452   -0.0000    0.0000   -0.3268    0.0000    0.0000
        5 N1     1s         1.0821   -0.0000   -0.0000   -2.6604   -2.9273   -0.0000   -0.0000   -3.8373    0.0000    0.0000
        6 N1     2px       -0.0000    0.0001   -0.0378   -0.0000   -0.0000   -0.0001   -0.0393   -0.0000   -0.0000    0.0000
        7 N1     2px       -0.0000   -0.0000    0.0090    0.0000    0.0000   -0.0000   -0.0086    0.0000    0.0000   -0.0000
        8 N1     2px        0.0000    0.0001   -0.0358   -0.0000    0.0000   -0.0005   -0.3692    0.0000   -0.0000   -0.0000
        9 N1     2px       -0.0000   -0.0006    0.2386   -0.0000    0.0000   -0.0117   -8.5942   -0.0000    0.0000    0.0000
       10 N1     2py       -0.0000   -0.0378   -0.0001   -0.0000   -0.0000   -0.0393    0.0001    0.0000   -0.0000   -0.0000
       11 N1     2py        0.0000    0.0090    0.0000    0.0000    0.0000   -0.0086    0.0000   -0.0000    0.0000    0.0000
       12 N1     2py        0.0000   -0.0358   -0.0001   -0.0000    0.0000   -0.3692    0.0005    0.0000    0.0000    0.0000
       13 N1     2py       -0.0000    0.2386    0.0006   -0.0000    0.0000   -8.5942    0.0117    0.0000    0.0000   -0.0000
       14 N1     2pz       -0.0035   -0.0000   -0.0000   -0.0140    0.0506   -0.0000   -0.0000    0.0020    0.0000   -0.0000
       15 N1     2pz       -0.0023   -0.0000    0.0000    0.0047    0.0020    0.0000    0.0000    0.0182   -0.0000   -0.0000
       16 N1     2pz       -0.0441    0.0000    0.0000    0.0918   -0.0257   -0.0000   -0.0000   -0.1742   -0.0000   -0.0000
       17 N1     2pz       -0.4867    0.0000    0.0000    1.1879   -3.1522   -0.0000   -0.0000   -5.7526    0.0000    0.0000
       18 N1     3d2-       0.0000    0.0000    0.0000    0.0000    0.0000    0.0000   -0.0000   -0.0000   -0.0012   -0.0000
       19 N1     3d2-       0.0000   -0.0000   -0.0000   -0.0000   -0.0000   -0.0000    0.0000   -0.0000    0.0119    0.0000
       20 N1     3d2-      -0.0000   -0.0000    0.0000   -0.0000    0.0000    0.0000    0.0000   -0.0000   -0.0682   -0.0000
       21 N1     3d1-       0.0000    0.0013    0.0000    0.0000    0.0000   -0.0023    0.0000   -0.0000    0.0000    0.0000
       22 N1     3d1-      -0.0000    0.0033    0.0000    0.0000   -0.0000    0.0296   -0.0000    0.0000    0.0000   -0.0000
       23 N1     3d1-       0.0000   -0.0042   -0.0000    0.0000   -0.0000    0.1364   -0.0002   -0.0000   -0.0000   -0.0000
       24 N1     3d0        0.0002    0.0000   -0.0000    0.0003   -0.0011   -0.0000    0.0000   -0.0013   -0.0000   -0.0000
       25 N1     3d0        0.0007   -0.0000   -0.0000    0.0023    0.0062    0.0000    0.0000    0.0072    0.0000    0.0000
       26 N1     3d0        0.0198   -0.0000   -0.0000   -0.0452   -0.0464    0.0000   -0.0000    0.1220    0.0000    0.0000
       27 N1     3d1+       0.0000   -0.0000    0.0013    0.0000    0.0000   -0.0000   -0.0023    0.0000    0.0000   -0.0000
       28 N1     3d1+      -0.0000   -0.0000    0.0033    0.0000   -0.0000    0.0000    0.0296   -0.0000   -0.0000    0.0000
       29 N1     3d1+       0.0000    0.0000   -0.0042    0.0000   -0.0000    0.0002    0.1364   -0.0000    0.0000    0.0000
       30 N1     3d2+       0.0000    0.0000   -0.0000   -0.0000    0.0000    0.0000   -0.0000    0.0000    0.0000   -0.0012
       31 N1     3d2+      -0.0000   -0.0000   -0.0000    0.0000   -0.0000   -0.0000    0.0000   -0.0000   -0.0000    0.0119
       32 N1     3d2+      -0.0000    0.0000   -0.0000   -0.0000   -0.0000   -0.0000   -0.0000   -0.0000    0.0000   -0.0682
       33 N1     4f3-       0.0000   -0.0000    0.0000    0.0000    0.0000   -0.0000   -0.0000    0.0000   -0.0000    0.0000
       34 N1     4f3-      -0.0000    0.0000   -0.0000   -0.0000    0.0000    0.0000    0.0000   -0.0000    0.0000   -0.0000
       35 N1     4f2-      -0.0000   -0.0000   -0.0000   -0.0000   -0.0000    0.0000    0.0000    0.0000    0.0001    0.0000
       36 N1     4f2-      -0.0000   -0.0000   -0.0000   -0.0000    0.0000   -0.0000   -0.0000    0.0000    0.0003    0.0000
       37 N1     4f1-       0.0000   -0.0010   -0.0000    0.0000   -0.0000   -0.0004    0.0000   -0.0000   -0.0000   -0.0000
       38 N1     4f1-       0.0000    0.0011    0.0000   -0.0000    0.0000   -0.0205    0.0000   -0.0000    0.0000    0.0000
       39 N1     4f0        0.0002   -0.0000    0.0000   -0.0006   -0.0011    0.0000    0.0000    0.0003   -0.0000    0.0000
       40 N1     4f0       -0.0022    0.0000    0.0000    0.0046    0.0025   -0.0000    0.0000   -0.0133   -0.0000   -0.0000
       41 N1     4f1+      -0.0000    0.0000   -0.0010    0.0000   -0.0000   -0.0000   -0.0004   -0.0000    0.0000   -0.0000
       42 N1     4f1+       0.0000   -0.0000    0.0011   -0.0000    0.0000   -0.0000   -0.0205    0.0000    0.0000   -0.0000
       43 N1     4f2+      -0.0000   -0.0000   -0.0000   -0.0000   -0.0000    0.0000   -0.0000   -0.0000   -0.0000    0.0001
       44 N1     4f2+       0.0000   -0.0000    0.0000   -0.0000    0.0000    0.0000   -0.0000    0.0000   -0.0000    0.0003
       45 N1     4f3+      -0.0000   -0.0000    0.0000   -0.0000    0.0000    0.0000    0.0000   -0.0000    0.0000   -0.0000
       46 N1     4f3+       0.0000    0.0000   -0.0000    0.0000    0.0000   -0.0000   -0.0000    0.0000   -0.0000   -0.0000
       47 N2     1s         0.0006    0.0000    0.0000   -0.0003    0.0002   -0.0000   -0.0000   -0.0071   -0.0000    0.0000
       48 N2     1s         0.0115   -0.0000    0.0000    0.0318    0.0510   -0.0000   -0.0000   -0.0327   -0.0000    0.0000
       49 N2     1s        -0.0001   -0.0000   -0.0000    0.0012    0.0014   -0.0000    0.0000   -0.0037   -0.0000   -0.0000
       50 N2     1s        -0.0825    0.0000    0.0000    0.2056    0.0452   -0.0000   -0.0000   -0.3268   -0.0000   -0.0000
       51 N2     1s        -1.0821    0.0000    0.0000    2.6604   -2.9273   -0.0000   -0.0000   -3.8373   -0.0000   -0.0000
       52 N2     2px       -0.0000    0.0001   -0.0378    0.0000    0.0000    0.0001    0.0393    0.0000   -0.0000   -0.0000
       53 N2     2px        0.0000   -0.0000    0.0090   -0.0000   -0.0000    0.0000    0.0086   -0.0000    0.0000    0.0000
       54 N2     2px       -0.0000    0.0001   -0.0358    0.0000   -0.0000    0.0005    0.3692   -0.0000    0.0000    0.0000
       55 N2     2px        0.0000   -0.0006    0.2386   -0.0000   -0.0000    0.0117    8.5942    0.0000   -0.0000   -0.0000
       56 N2     2py        0.0000   -0.0378   -0.0001    0.0000    0.0000    0.0393   -0.0001   -0.0000    0.0000    0.0000
       57 N2     2py       -0.0000    0.0090    0.0000   -0.0000   -0.0000    0.0086   -0.0000    0.0000    0.0000   -0.0000
       58 N2     2py        0.0000   -0.0358   -0.0001    0.0000   -0.0000    0.3692   -0.0005   -0.0000   -0.0000   -0.0000
       59 N2     2py        0.0000    0.2386    0.0006    0.0000   -0.0000    8.5942   -0.0117   -0.0000   -0.0000    0.0000
       60 N2     2pz       -0.0035    0.0000   -0.0000   -0.0140   -0.0506    0.0000    0.0000   -0.0020    0.0000    0.0000
       61 N2     2pz       -0.0023   -0.0000    0.0000    0.0047   -0.0020   -0.0000   -0.0000   -0.0182   -0.0000   -0.0000
       62 N2     2pz       -0.0441   -0.0000    0.0000    0.0918    0.0257    0.0000   -0.0000    0.1742   -0.0000   -0.0000
       63 N2     2pz       -0.4867   -0.0000    0.0000    1.1879    3.1522    0.0000    0.0000    5.7526   -0.0000   -0.0000
       64 N2     3d2-      -0.0000   -0.0000   -0.0000   -0.0000   -0.0000    0.0000    0.0000    0.0000   -0.0012   -0.0000
       65 N2     3d2-      -0.0000    0.0000   -0.0000    0.0000    0.0000    0.0000   -0.0000    0.0000    0.0119    0.0000
       66 N2     3d2-       0.0000   -0.0000   -0.0000    0.0000    0.0000   -0.0000   -0.0000    0.0000   -0.0682   -0.0000
       67 N2     3d1-       0.0000   -0.0013   -0.0000    0.0000    0.0000   -0.0023    0.0000   -0.0000    0.0000   -0.0000
       68 N2     3d1-      -0.0000   -0.0033   -0.0000    0.0000   -0.0000    0.0296   -0.0000    0.0000   -0.0000   -0.0000
       69 N2     3d1-       0.0000    0.0042    0.0000    0.0000   -0.0000    0.1364   -0.0002   -0.0000   -0.0000   -0.0000
       70 N2     3d0       -0.0002   -0.0000    0.0000   -0.0003   -0.0011    0.0000    0.0000   -0.0013    0.0000    0.0000
       71 N2     3d0       -0.0007   -0.0000    0.0000   -0.0023    0.0062    0.0000   -0.0000    0.0072   -0.0000   -0.0000
       72 N2     3d0       -0.0198   -0.0000    0.0000    0.0452   -0.0464    0.0000    0.0000    0.1220   -0.0000   -0.0000
       73 N2     3d1+       0.0000    0.0000   -0.0013    0.0000    0.0000   -0.0000   -0.0023    0.0000   -0.0000   -0.0000
       74 N2     3d1+      -0.0000    0.0000   -0.0033    0.0000   -0.0000    0.0000    0.0296   -0.0000    0.0000    0.0000
       75 N2     3d1+      -0.0000   -0.0000    0.0042    0.0000   -0.0000    0.0002    0.1364   -0.0000    0.0000    0.0000
       76 N2     3d2+      -0.0000   -0.0000   -0.0000   -0.0000   -0.0000    0.0000    0.0000   -0.0000    0.0000   -0.0012
       77 N2     3d2+       0.0000   -0.0000    0.0000   -0.0000    0.0000    0.0000   -0.0000    0.0000   -0.0000    0.0119
       78 N2     3d2+       0.0000   -0.0000   -0.0000   -0.0000    0.0000    0.0000   -0.0000    0.0000    0.0000   -0.0682
       79 N2     4f3-      -0.0000   -0.0000   -0.0000    0.0000    0.0000    0.0000   -0.0000    0.0000   -0.0000   -0.0000
       80 N2     4f3-       0.0000    0.0000    0.0000    0.0000    0.0000   -0.0000    0.0000    0.0000    0.0000    0.0000
       81 N2     4f2-      -0.0000   -0.0000   -0.0000   -0.0000    0.0000    0.0000    0.0000   -0.0000   -0.0001   -0.0000
       82 N2     4f2-      -0.0000    0.0000   -0.0000   -0.0000   -0.0000   -0.0000   -0.0000    0.0000   -0.0003   -0.0000
       83 N2     4f1-      -0.0000   -0.0010   -0.0000   -0.0000    0.0000    0.0004   -0.0000    0.0000    0.0000   -0.0000
       84 N2     4f1-      -0.0000    0.0011    0.0000    0.0000   -0.0000    0.0205   -0.0000    0.0000   -0.0000   -0.0000
       85 N2     4f0        0.0002   -0.0000    0.0000   -0.0006    0.0011    0.0000   -0.0000   -0.0003    0.0000    0.0000
       86 N2     4f0       -0.0022    0.0000    0.0000    0.0046   -0.0025    0.0000   -0.0000    0.0133   -0.0000   -0.0000
       87 N2     4f1+       0.0000    0.0000   -0.0010    0.0000   -0.0000    0.0000    0.0004    0.0000   -0.0000   -0.0000
       88 N2     4f1+      -0.0000   -0.0000    0.0011    0.0000   -0.0000    0.0000    0.0205   -0.0000    0.0000    0.0000
       89 N2     4f2+      -0.0000    0.0000   -0.0000    0.0000   -0.0000    0.0000   -0.0000   -0.0000    0.0000   -0.0001
       90 N2     4f2+       0.0000   -0.0000    0.0000   -0.0000    0.0000    0.0000    0.0000    0.0000    0.0000   -0.0003
       91 N2     4f3+       0.0000    0.0000    0.0000    0.0000    0.0000   -0.0000   -0.0000    0.0000    0.0000    0.0000
       92 N2     4f3+      -0.0000   -0.0000   -0.0000   -0.0000    0.0000    0.0000    0.0000   -0.0000    0.0000   -0.0000
       93 X1     1s        -0.0000    0.0000    0.0000    0.0000    8.3494    0.0000    0.0000    6.8654   -0.0000   -0.0000
       94 X1     1s         0.0000   -0.0000   -0.0000   -0.0000   -7.9052   -0.0000   -0.0000   -1.6571   -0.0000    0.0000
       95 X1     1s         0.0000    0.0000    0.0000    0.0000    3.4875    0.0000    0.0000    0.2152    0.0000   -0.0000
       96 X1     2px       -0.0000    0.0042   -1.7015    0.0000    0.0000   -0.0000    0.0000    0.0000   -0.0000   -0.0000
       97 X1     2px        0.0000   -0.0089    3.6354   -0.0000   -0.0000    0.0000   -0.0000   -0.0000    0.0000    0.0000
       98 X1     2px       -0.0000    0.0048   -1.9507    0.0000    0.0000   -0.0000    0.0000    0.0000   -0.0000   -0.0000
       99 X1     2py       -0.0000   -1.7015   -0.0042    0.0000    0.0000    0.0000    0.0000    0.0000   -0.0000    0.0000
      100 X1     2py        0.0000    3.6354    0.0089   -0.0000   -0.0000    0.0000   -0.0000   -0.0000    0.0000   -0.0000
      101 X1     2py       -0.0000   -1.9507   -0.0048    0.0000    0.0000   -0.0000    0.0000    0.0000   -0.0000    0.0000
      102 X1     2pz        0.9744   -0.0000   -0.0000   -2.5888    0.0000    0.0000    0.0000    0.0000    0.0000    0.0000
      103 X1     2pz       -1.5662    0.0000    0.0000    4.0929   -0.0000   -0.0000   -0.0000   -0.0000   -0.0000   -0.0000
      104 X1     2pz        1.8780   -0.0000   -0.0000   -2.0543    0.0000    0.0000    0.0000    0.0000    0.0000    0.0000
      105 X1     3d2-      -0.0000    0.0000   -0.0000    0.0000   -0.0000   -0.0000    0.0000    0.0000    0.4296    0.0001
      106 X1     3d2-       0.0000   -0.0000    0.0000   -0.0000    0.0000    0.0000    0.0000   -0.0000   -0.9757   -0.0002
      107 X1     3d2-       0.0000    0.0000   -0.0000    0.0000   -0.0000   -0.0000   -0.0000    0.0000    1.5672    0.0003
      108 X1     3d1-      -0.0000   -0.0000   -0.0000    0.0000   -0.0000    0.8162   -0.0011   -0.0000   -0.0000    0.0000
      109 X1     3d1-       0.0000   -0.0000   -0.0000    0.0000   -0.0000    4.2510   -0.0058   -0.0000   -0.0000    0.0000
      110 X1     3d1-      -0.0000    0.0000    0.0000   -0.0000    0.0000   -2.0902    0.0028    0.0000    0.0000   -0.0000
      111 X1     3d0       -0.0000    0.0000    0.0000    0.0000    0.6019    0.0000    0.0000    0.6023   -0.0000    0.0000
      112 X1     3d0       -0.0000   -0.0000   -0.0000    0.0000    1.6271    0.0000    0.0000    3.6644   -0.0000   -0.0000
      113 X1     3d0        0.0000    0.0000    0.0000   -0.0000   -0.3896   -0.0000   -0.0000   -1.9900    0.0000    0.0000
      114 X1     3d1+       0.0000    0.0000    0.0000    0.0000   -0.0000    0.0011    0.8162    0.0000   -0.0000   -0.0000
      115 X1     3d1+       0.0000    0.0000    0.0000   -0.0000   -0.0000    0.0058    4.2510    0.0000   -0.0000   -0.0000
      116 X1     3d1+       0.0000   -0.0000   -0.0000    0.0000    0.0000   -0.0028   -2.0902   -0.0000    0.0000    0.0000
      117 X1     3d2+      -0.0000    0.0000   -0.0000    0.0000    0.0000    0.0000    0.0000    0.0000   -0.0001    0.4296
      118 X1     3d2+      -0.0000   -0.0000   -0.0000   -0.0000   -0.0000   -0.0000   -0.0000   -0.0000    0.0002   -0.9757
      119 X1     3d2+       0.0000    0.0000    0.0000    0.0000    0.0000    0.0000    0.0000    0.0000   -0.0003    1.5672

          Orbital           21        22        23        24        25        26        27        28        29        30    
          Energy            0.1045    0.1058    0.1058    0.1184    0.1186    0.1186    0.1403    0.1566    0.1566    0.1724
          Occ. No.          0.0000    0.0000    0.0000    0.0000    0.0000    0.0000    0.0000    0.0000    0.0000    0.0000

        1 N1     1s         0.0032    0.0000   -0.0000   -0.0034    0.0000    0.0000   -0.0128    0.0000    0.0000   -0.0000
        2 N1     1s         0.0829    0.0000   -0.0000   -0.1087    0.0000    0.0000   -0.0158    0.0000    0.0000   -0.0000
        3 N1     1s         0.0009   -0.0000    0.0000    0.0004   -0.0000   -0.0000   -0.0081    0.0000   -0.0000   -0.0000
        4 N1     1s        -1.0064   -0.0000    0.0000    0.0005    0.0000    0.0000   -0.7481    0.0000    0.0000   -0.0000
        5 N1     1s        -9.2860   -0.0000    0.0000   -7.6355    0.0000    0.0000   -9.0422   -0.0000    0.0000   -0.0000
        6 N1     2px       -0.0000   -0.0743    0.0002    0.0000    0.0000    0.3390    0.0000    0.0000   -0.0000   -0.0000
        7 N1     2px        0.0000   -0.0195    0.0001   -0.0000   -0.0000   -0.0114    0.0000   -0.0000    0.0000   -0.0000
        8 N1     2px       -0.0000    0.0724   -0.0002   -0.0000   -0.0000   -0.3878    0.0000    0.0000    0.0000   -0.0001
        9 N1     2px        0.0000   -0.7234    0.0020   -0.0000   -0.0013  -13.0346    0.0000   -0.0000   -0.0000   -0.0013
       10 N1     2py       -0.0000    0.0002    0.0743    0.0000    0.3390   -0.0000    0.0000   -0.0000   -0.0000   -0.4632
       11 N1     2py        0.0000    0.0001    0.0195    0.0000   -0.0114    0.0000   -0.0000    0.0000    0.0000   -0.0163
       12 N1     2py       -0.0000   -0.0002   -0.0724   -0.0000   -0.3878    0.0000   -0.0000   -0.0000    0.0000   -0.9181
       13 N1     2py       -0.0000    0.0020    0.7234   -0.0000  -13.0346    0.0013   -0.0000    0.0000    0.0000  -21.2549
       14 N1     2pz        0.0241   -0.0000   -0.0000   -0.0886    0.0000    0.0000   -0.0267   -0.0000    0.0000    0.0000
       15 N1     2pz        0.0330    0.0000    0.0000    0.0110   -0.0000   -0.0000    0.0459   -0.0000   -0.0000    0.0000
       16 N1     2pz        0.5746    0.0000   -0.0000   -0.0671    0.0000   -0.0000   -0.3856    0.0000   -0.0000    0.0000
       17 N1     2pz        3.9835    0.0000    0.0000   -7.7449    0.0000    0.0000  -13.7451   -0.0000    0.0000    0.0000
       18 N1     3d2-      -0.0000    0.0000   -0.0000   -0.0000    0.0000   -0.0000    0.0000    0.0055    0.0000    0.0000
       19 N1     3d2-       0.0000    0.0000    0.0000    0.0000   -0.0000    0.0000   -0.0000   -0.0169   -0.0000   -0.0000
       20 N1     3d2-      -0.0000    0.0000   -0.0000    0.0000    0.0000   -0.0000    0.0000    0.1815    0.0000    0.0000
       21 N1     3d1-       0.0000   -0.0000   -0.0031    0.0000    0.0039   -0.0000   -0.0000   -0.0000   -0.0000   -0.0112
       22 N1     3d1-      -0.0000   -0.0000   -0.0065    0.0000    0.0680   -0.0000    0.0000    0.0000    0.0000    0.0441
       23 N1     3d1-      -0.0000   -0.0000   -0.0122    0.0000    0.1881   -0.0000    0.0000   -0.0000    0.0000    0.2339
       24 N1     3d0       -0.0017    0.0000   -0.0000   -0.0017    0.0000    0.0000    0.0010    0.0000   -0.0000    0.0000
       25 N1     3d0       -0.0200   -0.0000    0.0000    0.0061   -0.0000    0.0000    0.0300    0.0000    0.0000    0.0000
       26 N1     3d0       -0.1825   -0.0000    0.0000   -0.1499    0.0000    0.0000    0.2672   -0.0000    0.0000   -0.0000
       27 N1     3d1+       0.0000    0.0031   -0.0000    0.0000    0.0000    0.0039   -0.0000    0.0000   -0.0000   -0.0000
       28 N1     3d1+      -0.0000    0.0065   -0.0000    0.0000    0.0000    0.0680   -0.0000    0.0000   -0.0000    0.0000
       29 N1     3d1+      -0.0000    0.0122   -0.0000    0.0000    0.0000    0.1881    0.0000    0.0000   -0.0000    0.0000
       30 N1     3d2+      -0.0000   -0.0000    0.0000    0.0000   -0.0000   -0.0000   -0.0000    0.0000   -0.0055    0.0000
       31 N1     3d2+       0.0000    0.0000   -0.0000   -0.0000    0.0000   -0.0000   -0.0000   -0.0000    0.0169    0.0000
       32 N1     3d2+      -0.0000   -0.0000    0.0000   -0.0000   -0.0000   -0.0000   -0.0000    0.0000   -0.1815   -0.0000
       33 N1     4f3-      -0.0000    0.0000   -0.0000   -0.0000   -0.0000    0.0000   -0.0000    0.0000    0.0000   -0.0000
       34 N1     4f3-       0.0000   -0.0000    0.0000    0.0000    0.0000   -0.0000    0.0000   -0.0000    0.0000    0.0000
       35 N1     4f2-       0.0000    0.0000    0.0000   -0.0000    0.0000    0.0000   -0.0000   -0.0006   -0.0000    0.0000
       36 N1     4f2-       0.0000   -0.0000    0.0000    0.0000    0.0000   -0.0000    0.0000   -0.0018   -0.0000   -0.0000
       37 N1     4f1-       0.0000    0.0000    0.0003   -0.0000   -0.0036    0.0000    0.0000   -0.0000   -0.0000    0.0011
       38 N1     4f1-       0.0000    0.0000    0.0030    0.0000   -0.0328    0.0000   -0.0000   -0.0000    0.0000   -0.0359
       39 N1     4f0        0.0000    0.0000    0.0000   -0.0027   -0.0000    0.0000   -0.0004   -0.0000   -0.0000   -0.0000
       40 N1     4f0        0.0154    0.0000   -0.0000    0.0109    0.0000    0.0000   -0.0309   -0.0000   -0.0000    0.0000
       41 N1     4f1+      -0.0000   -0.0003    0.0000   -0.0000   -0.0000   -0.0036   -0.0000    0.0000   -0.0000    0.0000
       42 N1     4f1+       0.0000   -0.0030    0.0000   -0.0000   -0.0000   -0.0328    0.0000   -0.0000    0.0000   -0.0000
       43 N1     4f2+      -0.0000   -0.0000   -0.0000   -0.0000   -0.0000    0.0000   -0.0000   -0.0000    0.0006   -0.0000
       44 N1     4f2+       0.0000    0.0000    0.0000    0.0000    0.0000    0.0000    0.0000   -0.0000    0.0018    0.0000
       45 N1     4f3+       0.0000   -0.0000    0.0000    0.0000   -0.0000    0.0000    0.0000    0.0000   -0.0000   -0.0000
       46 N1     4f3+      -0.0000    0.0000   -0.0000    0.0000   -0.0000   -0.0000   -0.0000   -0.0000   -0.0000    0.0000
       47 N2     1s        -0.0032    0.0000   -0.0000   -0.0034   -0.0000    0.0000   -0.0128    0.0000    0.0000    0.0000
       48 N2     1s        -0.0829    0.0000   -0.0000   -0.1087    0.0000    0.0000   -0.0158    0.0000   -0.0000    0.0000
       49 N2     1s        -0.0009   -0.0000    0.0000    0.0004    0.0000    0.0000   -0.0081   -0.0000    0.0000   -0.0000
       50 N2     1s         1.0064    0.0000   -0.0000    0.0005   -0.0000   -0.0000   -0.7481   -0.0000   -0.0000    0.0000
       51 N2     1s         9.2860    0.0000    0.0000   -7.6355    0.0000    0.0000   -9.0422    0.0000   -0.0000    0.0000
       52 N2     2px        0.0000   -0.0743    0.0002   -0.0000   -0.0000   -0.3390   -0.0000    0.0000    0.0000    0.0000
       53 N2     2px       -0.0000   -0.0195    0.0001    0.0000    0.0000    0.0114   -0.0000   -0.0000   -0.0000    0.0000
       54 N2     2px       -0.0000    0.0724   -0.0002    0.0000    0.0000    0.3878   -0.0000    0.0000   -0.0000    0.0001
       55 N2     2px        0.0000   -0.7234    0.0020    0.0000    0.0013   13.0346   -0.0000    0.0000    0.0000    0.0013
       56 N2     2py        0.0000    0.0002    0.0743   -0.0000   -0.3390    0.0000   -0.0000    0.0000   -0.0000    0.4632
       57 N2     2py       -0.0000    0.0001    0.0195   -0.0000    0.0114   -0.0000    0.0000   -0.0000    0.0000    0.0163
       58 N2     2py        0.0000   -0.0002   -0.0724    0.0000    0.3878   -0.0000    0.0000    0.0000    0.0000    0.9181
       59 N2     2py        0.0000    0.0020    0.7234    0.0000   13.0346   -0.0013    0.0000   -0.0000   -0.0000   21.2549
       60 N2     2pz        0.0241    0.0000   -0.0000    0.0886    0.0000   -0.0000    0.0267   -0.0000   -0.0000   -0.0000
       61 N2     2pz        0.0330    0.0000    0.0000   -0.0110   -0.0000   -0.0000   -0.0459   -0.0000   -0.0000    0.0000
       62 N2     2pz        0.5746    0.0000    0.0000    0.0671   -0.0000   -0.0000    0.3856   -0.0000   -0.0000    0.0000
       63 N2     2pz        3.9835    0.0000   -0.0000    7.7449   -0.0000   -0.0000   13.7451    0.0000   -0.0000    0.0000
       64 N2     3d2-       0.0000   -0.0000    0.0000    0.0000    0.0000    0.0000    0.0000    0.0055    0.0000   -0.0000
       65 N2     3d2-       0.0000    0.0000    0.0000   -0.0000    0.0000    0.0000    0.0000   -0.0169   -0.0000   -0.0000
       66 N2     3d2-       0.0000    0.0000    0.0000    0.0000    0.0000   -0.0000   -0.0000    0.1815    0.0000   -0.0000
       67 N2     3d1-       0.0000    0.0000    0.0031    0.0000    0.0039   -0.0000   -0.0000    0.0000    0.0000   -0.0112
       68 N2     3d1-      -0.0000    0.0000    0.0065    0.0000    0.0680   -0.0000    0.0000   -0.0000    0.0000    0.0441
       69 N2     3d1-       0.0000    0.0000    0.0122    0.0000    0.1881   -0.0000    0.0000   -0.0000    0.0000    0.2339
       70 N2     3d0        0.0017    0.0000   -0.0000   -0.0017    0.0000   -0.0000    0.0010   -0.0000   -0.0000   -0.0000
       71 N2     3d0        0.0200   -0.0000    0.0000    0.0061   -0.0000   -0.0000    0.0300   -0.0000   -0.0000    0.0000
       72 N2     3d0        0.1825   -0.0000    0.0000   -0.1499    0.0000    0.0000    0.2672   -0.0000   -0.0000    0.0000
       73 N2     3d1+       0.0000   -0.0031    0.0000    0.0000    0.0000    0.0039   -0.0000   -0.0000    0.0000   -0.0000
       74 N2     3d1+      -0.0000   -0.0065    0.0000    0.0000    0.0000    0.0680   -0.0000    0.0000   -0.0000    0.0000
       75 N2     3d1+       0.0000   -0.0122    0.0000    0.0000    0.0000    0.1881    0.0000   -0.0000   -0.0000    0.0000
       76 N2     3d2+       0.0000    0.0000   -0.0000   -0.0000    0.0000   -0.0000   -0.0000    0.0000   -0.0055   -0.0000
       77 N2     3d2+       0.0000    0.0000   -0.0000    0.0000   -0.0000    0.0000    0.0000   -0.0000    0.0169    0.0000
       78 N2     3d2+      -0.0000   -0.0000    0.0000    0.0000   -0.0000   -0.0000   -0.0000    0.0000   -0.1815    0.0000
       79 N2     4f3-      -0.0000   -0.0000   -0.0000   -0.0000    0.0000   -0.0000    0.0000    0.0000    0.0000    0.0000
       80 N2     4f3-       0.0000    0.0000    0.0000    0.0000   -0.0000    0.0000   -0.0000   -0.0000   -0.0000   -0.0000
       81 N2     4f2-       0.0000   -0.0000   -0.0000   -0.0000   -0.0000   -0.0000    0.0000    0.0006    0.0000    0.0000
       82 N2     4f2-      -0.0000   -0.0000    0.0000    0.0000    0.0000   -0.0000   -0.0000    0.0018    0.0000   -0.0000
       83 N2     4f1-      -0.0000    0.0000    0.0003    0.0000    0.0036   -0.0000   -0.0000    0.0000    0.0000   -0.0011
       84 N2     4f1-       0.0000    0.0000    0.0030   -0.0000    0.0328   -0.0000    0.0000    0.0000   -0.0000    0.0359
       85 N2     4f0        0.0000   -0.0000   -0.0000    0.0027   -0.0000   -0.0000    0.0004    0.0000   -0.0000    0.0000
       86 N2     4f0        0.0154   -0.0000    0.0000   -0.0109    0.0000    0.0000    0.0309   -0.0000   -0.0000    0.0000
       87 N2     4f1+      -0.0000   -0.0003    0.0000    0.0000    0.0000    0.0036    0.0000   -0.0000    0.0000   -0.0000
       88 N2     4f1+      -0.0000   -0.0030    0.0000    0.0000    0.0000    0.0328   -0.0000   -0.0000   -0.0000    0.0000
       89 N2     4f2+       0.0000   -0.0000    0.0000   -0.0000   -0.0000   -0.0000   -0.0000    0.0000   -0.0006    0.0000
       90 N2     4f2+      -0.0000    0.0000    0.0000    0.0000   -0.0000    0.0000    0.0000    0.0000   -0.0018    0.0000
       91 N2     4f3+      -0.0000   -0.0000    0.0000    0.0000   -0.0000   -0.0000    0.0000    0.0000    0.0000   -0.0000
       92 N2     4f3+       0.0000    0.0000    0.0000    0.0000    0.0000    0.0000   -0.0000   -0.0000    0.0000   -0.0000
       93 X1     1s         0.0000    0.0000   -0.0000   19.1264   -0.0000   -0.0000   15.0072   -0.0000   -0.0000    0.0000
       94 X1     1s        -0.0000   -0.0000    0.0000  -10.3229    0.0000    0.0000   -2.9825    0.0000    0.0000   -0.0000
       95 X1     1s         0.0000    0.0000   -0.0000    2.9811   -0.0000   -0.0000    0.4192   -0.0000   -0.0000    0.0000
       96 X1     2px       -0.0000    4.6378   -0.0130    0.0000   -0.0000   -0.0000   -0.0000    0.0000   -0.0000   -0.0000
       97 X1     2px        0.0000   -4.2885    0.0120   -0.0000    0.0000    0.0000    0.0000   -0.0000    0.0000    0.0000
       98 X1     2px       -0.0000    1.5053   -0.0042    0.0000   -0.0000   -0.0000   -0.0000    0.0000   -0.0000   -0.0000
       99 X1     2py       -0.0000   -0.0130   -4.6378   -0.0000   -0.0000   -0.0000   -0.0000    0.0000    0.0000   -0.0000
      100 X1     2py        0.0000    0.0120    4.2885    0.0000    0.0000    0.0000    0.0000   -0.0000   -0.0000    0.0000
      101 X1     2py       -0.0000   -0.0042   -1.5053    0.0000   -0.0000   -0.0000   -0.0000   -0.0000    0.0000   -0.0000
      102 X1     2pz       -7.0769   -0.0000    0.0000   -0.0000   -0.0000   -0.0000   -0.0000   -0.0000    0.0000   -0.0000
      103 X1     2pz        5.1369    0.0000   -0.0000   -0.0000    0.0000    0.0000    0.0000    0.0000   -0.0000    0.0000
      104 X1     2pz       -1.6612   -0.0000    0.0000    0.0000   -0.0000    0.0000   -0.0000   -0.0000    0.0000   -0.0000
      105 X1     3d2-       0.0000   -0.0000    0.0000   -0.0000   -0.0000    0.0000    0.0000   -1.0853   -0.0000   -0.0000
      106 X1     3d2-      -0.0000    0.0000    0.0000    0.0000   -0.0000   -0.0000   -0.0000    2.6604    0.0001    0.0000
      107 X1     3d2-       0.0000   -0.0000   -0.0000   -0.0000    0.0000    0.0000    0.0000   -1.4089   -0.0000   -0.0000
      108 X1     3d1-       0.0000   -0.0000   -0.0000    0.0000    1.3534   -0.0001    0.0000    0.0000   -0.0000    2.0533
      109 X1     3d1-       0.0000   -0.0000   -0.0000    0.0000    6.5655   -0.0007    0.0000   -0.0000   -0.0000    9.4980
      110 X1     3d1-      -0.0000    0.0000    0.0000   -0.0000   -1.6655    0.0002   -0.0000    0.0000    0.0000   -1.7836
      111 X1     3d0        0.0000    0.0000   -0.0000    1.4913   -0.0000   -0.0000    1.5362   -0.0000   -0.0000    0.0000
      112 X1     3d0        0.0000   -0.0000    0.0000    3.7184   -0.0000   -0.0000    8.4911    0.0000   -0.0000    0.0000
      113 X1     3d0       -0.0000    0.0000   -0.0000   -0.4784    0.0000    0.0000   -2.0242   -0.0000    0.0000   -0.0000
      114 X1     3d1+       0.0000    0.0000   -0.0000    0.0000    0.0001    1.3534   -0.0000    0.0000    0.0000    0.0001
      115 X1     3d1+       0.0000    0.0000   -0.0000    0.0000    0.0007    6.5655   -0.0000    0.0000    0.0000    0.0006
      116 X1     3d1+      -0.0000   -0.0000    0.0000   -0.0000   -0.0002   -1.6655   -0.0000   -0.0000   -0.0000   -0.0001
      117 X1     3d2+       0.0000    0.0000   -0.0000    0.0000   -0.0000    0.0000    0.0000   -0.0000    1.0853    0.0000
      118 X1     3d2+      -0.0000   -0.0000    0.0000   -0.0000    0.0000   -0.0000   -0.0000    0.0001   -2.6604   -0.0000
      119 X1     3d2+       0.0000    0.0000   -0.0000    0.0000   -0.0000    0.0000    0.0000   -0.0000    1.4089    0.0000

          Orbital           31        32        33        34        35        36        37        38        39        40    
          Energy            0.1724    0.2026    0.2624    0.2624    0.2787    0.3046    0.3153    0.3153    0.3303    0.3536
          Occ. No.          0.0000    0.0000    0.0000    0.0000    0.0000    0.0000    0.0000    0.0000    0.0000    0.0000

        1 N1     1s        -0.0000   -0.0043    0.0000    0.0000   -0.0096   -0.0235    0.0000    0.0000   -0.0066    0.0000
        2 N1     1s        -0.0000   -0.1123    0.0000    0.0000    0.0497   -0.2516    0.0000    0.0000    0.1536    0.0000
        3 N1     1s         0.0000    0.0109   -0.0000   -0.0000   -0.0113   -0.0205   -0.0000   -0.0000    0.0327    0.0000
        4 N1     1s        -0.0000   -7.0566   -0.0000    0.0000   -0.9338   -1.6334    0.0000    0.0000  -10.6850   -0.0000
        5 N1     1s        -0.0000  -40.7403   -0.0000    0.0000  -20.3796    0.2037   -0.0000   -0.0000  -42.2404   -0.0000
        6 N1     2px       -0.4632    0.0000    0.2097   -0.0020    0.0000   -0.0000    0.0000    0.3262    0.0000   -0.0000
        7 N1     2px       -0.0163   -0.0000   -0.0621    0.0006   -0.0000    0.0000   -0.0000   -0.0123   -0.0000    0.0000
        8 N1     2px       -0.9181   -0.0000    0.3007   -0.0029   -0.0000   -0.0000   -0.0000   -1.2297   -0.0000   -0.0000
        9 N1     2px      -21.2549    0.0000   -2.0433    0.0197   -0.0000   -0.0000   -0.0012  -41.1215    0.0000    0.0000
       10 N1     2py        0.0000    0.0000   -0.0020   -0.2097   -0.0000   -0.0000    0.3262   -0.0000    0.0000   -0.0000
       11 N1     2py        0.0000    0.0000    0.0006    0.0621   -0.0000    0.0000   -0.0123    0.0000   -0.0000    0.0000
       12 N1     2py        0.0001   -0.0000   -0.0029   -0.3007    0.0000    0.0000   -1.2297    0.0000   -0.0000    0.0000
       13 N1     2py        0.0013    0.0000    0.0197    2.0433   -0.0000    0.0000  -41.1215    0.0012    0.0000    0.0000
       14 N1     2pz        0.0000   -0.0536   -0.0000   -0.0000    0.1298   -0.0302    0.0000    0.0000    0.0392   -0.0000
       15 N1     2pz        0.0000    0.2364    0.0000   -0.0000    0.0707    0.0475   -0.0000   -0.0000    0.3740    0.0000
       16 N1     2pz        0.0000    4.0336    0.0000   -0.0000   -0.6617   -0.5678   -0.0000    0.0000    6.5881    0.0000
       17 N1     2pz        0.0000   13.8186    0.0000   -0.0000  -28.8290   -6.1488    0.0000    0.0000   10.5658    0.0000
       18 N1     3d2-       0.0000    0.0000   -0.0000    0.0000    0.0000   -0.0000   -0.0000    0.0000   -0.0000   -0.0003
       19 N1     3d2-       0.0000   -0.0000   -0.0000    0.0000   -0.0000    0.0000    0.0000   -0.0000   -0.0000    0.0839
       20 N1     3d2-       0.0000    0.0000   -0.0000    0.0000   -0.0000   -0.0000    0.0000    0.0000    0.0000   -0.3747
       21 N1     3d1-       0.0000    0.0000    0.0001    0.0081    0.0000    0.0000   -0.0029    0.0000   -0.0000    0.0000
       22 N1     3d1-      -0.0000    0.0000    0.0002    0.0160   -0.0000   -0.0000    0.1541   -0.0000    0.0000   -0.0000
       23 N1     3d1-      -0.0000    0.0000   -0.0001   -0.0106    0.0000   -0.0000    0.2686   -0.0000    0.0000   -0.0000
       24 N1     3d0        0.0000    0.0006   -0.0000    0.0000   -0.0111   -0.0074   -0.0000    0.0000   -0.0033    0.0000
       25 N1     3d0       -0.0000   -0.1626    0.0000   -0.0000    0.0512   -0.0131    0.0000    0.0000   -0.3211   -0.0000
       26 N1     3d0       -0.0000   -0.9237   -0.0000    0.0000    0.0475    0.7229   -0.0000   -0.0000   -1.2381   -0.0000
       27 N1     3d1+      -0.0112    0.0000   -0.0081    0.0001   -0.0000   -0.0000   -0.0000   -0.0029   -0.0000    0.0000
       28 N1     3d1+       0.0441    0.0000   -0.0160    0.0002    0.0000    0.0000    0.0000    0.1541    0.0000   -0.0000
       29 N1     3d1+       0.2339    0.0000    0.0106   -0.0001    0.0000    0.0000    0.0000    0.2686    0.0000    0.0000
       30 N1     3d2+      -0.0000   -0.0000    0.0000   -0.0000    0.0000   -0.0000    0.0000    0.0000   -0.0000    0.0000
       31 N1     3d2+      -0.0000    0.0000   -0.0000   -0.0000   -0.0000    0.0000    0.0000   -0.0000    0.0000   -0.0000
       32 N1     3d2+       0.0000   -0.0000   -0.0000   -0.0000   -0.0000   -0.0000   -0.0000    0.0000   -0.0000    0.0000
       33 N1     4f3-      -0.0000   -0.0000    0.0000   -0.0000   -0.0000   -0.0000   -0.0000    0.0000    0.0000   -0.0000
       34 N1     4f3-       0.0000   -0.0000   -0.0000    0.0000    0.0000    0.0000    0.0000   -0.0000   -0.0000    0.0000
       35 N1     4f2-       0.0000   -0.0000   -0.0000   -0.0000    0.0000   -0.0000   -0.0000   -0.0000    0.0000   -0.0001
       36 N1     4f2-      -0.0000   -0.0000    0.0000   -0.0000   -0.0000   -0.0000   -0.0000   -0.0000   -0.0000   -0.0025
       37 N1     4f1-      -0.0000    0.0000   -0.0001   -0.0056   -0.0000   -0.0000   -0.0093    0.0000    0.0000   -0.0000
       38 N1     4f1-       0.0000   -0.0000    0.0000    0.0040   -0.0000    0.0000   -0.0724    0.0000   -0.0000    0.0000
       39 N1     4f0       -0.0000    0.0094   -0.0000    0.0000   -0.0035    0.0079   -0.0000   -0.0000    0.0230    0.0000
       40 N1     4f0        0.0000    0.0465    0.0000    0.0000   -0.0275   -0.0602   -0.0000    0.0000    0.0409    0.0000
       41 N1     4f1+       0.0011   -0.0000    0.0056   -0.0001   -0.0000   -0.0000   -0.0000   -0.0093    0.0000    0.0000
       42 N1     4f1+      -0.0359   -0.0000   -0.0040    0.0000    0.0000   -0.0000   -0.0000   -0.0724   -0.0000   -0.0000
       43 N1     4f2+      -0.0000   -0.0000   -0.0000   -0.0000   -0.0000   -0.0000   -0.0000    0.0000   -0.0000    0.0000
       44 N1     4f2+      -0.0000    0.0000    0.0000   -0.0000    0.0000    0.0000    0.0000    0.0000    0.0000    0.0000
       45 N1     4f3+       0.0000   -0.0000   -0.0000    0.0000    0.0000   -0.0000   -0.0000    0.0000    0.0000    0.0000
       46 N1     4f3+      -0.0000    0.0000    0.0000   -0.0000    0.0000    0.0000    0.0000   -0.0000    0.0000   -0.0000
       47 N2     1s        -0.0000    0.0043    0.0000    0.0000   -0.0096   -0.0235   -0.0000   -0.0000    0.0066    0.0000
       48 N2     1s        -0.0000    0.1123   -0.0000    0.0000    0.0497   -0.2516   -0.0000   -0.0000   -0.1536    0.0000
       49 N2     1s        -0.0000   -0.0109   -0.0000   -0.0000   -0.0113   -0.0205    0.0000    0.0000   -0.0327    0.0000
       50 N2     1s         0.0000    7.0566    0.0000   -0.0000   -0.9338   -1.6334   -0.0000   -0.0000   10.6850    0.0000
       51 N2     1s         0.0000   40.7403    0.0000   -0.0000  -20.3796    0.2037    0.0000    0.0000   42.2404    0.0000
       52 N2     2px        0.4632   -0.0000    0.2097   -0.0020    0.0000    0.0000   -0.0000   -0.3262   -0.0000   -0.0000
       53 N2     2px        0.0163    0.0000   -0.0621    0.0006    0.0000   -0.0000    0.0000    0.0123    0.0000    0.0000
       54 N2     2px        0.9181    0.0000    0.3007   -0.0029    0.0000    0.0000    0.0000    1.2297    0.0000    0.0000
       55 N2     2px       21.2549   -0.0000   -2.0433    0.0197    0.0000    0.0000    0.0012   41.1215   -0.0000   -0.0000
       56 N2     2py       -0.0000   -0.0000   -0.0020   -0.2097    0.0000    0.0000   -0.3262    0.0000   -0.0000    0.0000
       57 N2     2py       -0.0000    0.0000    0.0006    0.0621   -0.0000   -0.0000    0.0123   -0.0000    0.0000   -0.0000
       58 N2     2py       -0.0001    0.0000   -0.0029   -0.3007    0.0000   -0.0000    1.2297   -0.0000    0.0000   -0.0000
       59 N2     2py       -0.0013   -0.0000    0.0197    2.0433    0.0000   -0.0000   41.1215   -0.0012   -0.0000   -0.0000
       60 N2     2pz       -0.0000   -0.0536   -0.0000    0.0000   -0.1298    0.0302    0.0000    0.0000    0.0392    0.0000
       61 N2     2pz        0.0000    0.2364    0.0000   -0.0000   -0.0707   -0.0475   -0.0000   -0.0000    0.3740   -0.0000
       62 N2     2pz        0.0000    4.0336    0.0000   -0.0000    0.6617    0.5678   -0.0000    0.0000    6.5881    0.0000
       63 N2     2pz        0.0000   13.8186   -0.0000    0.0000   28.8290    6.1488   -0.0000    0.0000   10.5658    0.0000
       64 N2     3d2-       0.0000   -0.0000    0.0000   -0.0000   -0.0000    0.0000   -0.0000    0.0000    0.0000   -0.0003
       65 N2     3d2-      -0.0000    0.0000    0.0000    0.0000    0.0000    0.0000    0.0000   -0.0000   -0.0000    0.0839
       66 N2     3d2-      -0.0000   -0.0000   -0.0000   -0.0000    0.0000   -0.0000   -0.0000   -0.0000    0.0000   -0.3747
       67 N2     3d1-       0.0000   -0.0000   -0.0001   -0.0081    0.0000    0.0000   -0.0029    0.0000   -0.0000   -0.0000
       68 N2     3d1-      -0.0000    0.0000   -0.0002   -0.0160    0.0000   -0.0000    0.1541   -0.0000    0.0000    0.0000
       69 N2     3d1-      -0.0000    0.0000    0.0001    0.0106   -0.0000   -0.0000    0.2686   -0.0000    0.0000   -0.0000
       70 N2     3d0        0.0000   -0.0006   -0.0000    0.0000   -0.0111   -0.0074   -0.0000   -0.0000    0.0033    0.0000
       71 N2     3d0        0.0000    0.1626    0.0000   -0.0000    0.0512   -0.0131   -0.0000   -0.0000    0.3211    0.0000
       72 N2     3d0        0.0000    0.9237    0.0000   -0.0000    0.0475    0.7229   -0.0000    0.0000    1.2381    0.0000
       73 N2     3d1+      -0.0112   -0.0000    0.0081   -0.0001   -0.0000    0.0000   -0.0000   -0.0029   -0.0000   -0.0000
       74 N2     3d1+       0.0441    0.0000    0.0160   -0.0002    0.0000    0.0000    0.0000    0.1541    0.0000   -0.0000
       75 N2     3d1+       0.2339    0.0000   -0.0106    0.0001   -0.0000    0.0000    0.0000    0.2686    0.0000    0.0000
       76 N2     3d2+      -0.0000   -0.0000    0.0000   -0.0000   -0.0000   -0.0000    0.0000   -0.0000   -0.0000    0.0000
       77 N2     3d2+      -0.0000    0.0000   -0.0000    0.0000    0.0000    0.0000   -0.0000    0.0000    0.0000   -0.0000
       78 N2     3d2+       0.0000   -0.0000    0.0000   -0.0000   -0.0000   -0.0000    0.0000   -0.0000   -0.0000    0.0000
       79 N2     4f3-      -0.0000   -0.0000   -0.0000   -0.0000    0.0000   -0.0000    0.0000   -0.0000    0.0000    0.0000
       80 N2     4f3-       0.0000    0.0000    0.0000    0.0000   -0.0000    0.0000   -0.0000   -0.0000   -0.0000   -0.0000
       81 N2     4f2-       0.0000   -0.0000    0.0000   -0.0000    0.0000   -0.0000   -0.0000   -0.0000    0.0000    0.0001
       82 N2     4f2-      -0.0000   -0.0000    0.0000   -0.0000   -0.0000    0.0000   -0.0000   -0.0000   -0.0000    0.0025
       83 N2     4f1-       0.0000   -0.0000   -0.0001   -0.0056    0.0000   -0.0000    0.0093   -0.0000   -0.0000   -0.0000
       84 N2     4f1-      -0.0000    0.0000    0.0000    0.0040   -0.0000   -0.0000    0.0724   -0.0000    0.0000   -0.0000
       85 N2     4f0        0.0000    0.0094    0.0000   -0.0000    0.0035   -0.0079   -0.0000   -0.0000    0.0230   -0.0000
       86 N2     4f0        0.0000    0.0465    0.0000   -0.0000    0.0275    0.0602   -0.0000    0.0000    0.0409   -0.0000
       87 N2     4f1+      -0.0011   -0.0000    0.0056   -0.0001    0.0000   -0.0000    0.0000    0.0093   -0.0000   -0.0000
       88 N2     4f1+       0.0359    0.0000   -0.0040    0.0000    0.0000    0.0000    0.0000    0.0724    0.0000   -0.0000
       89 N2     4f2+       0.0000    0.0000   -0.0000    0.0000   -0.0000   -0.0000    0.0000   -0.0000    0.0000   -0.0000
       90 N2     4f2+      -0.0000    0.0000    0.0000    0.0000    0.0000    0.0000   -0.0000    0.0000    0.0000   -0.0000
       91 N2     4f3+      -0.0000    0.0000   -0.0000   -0.0000    0.0000    0.0000    0.0000   -0.0000    0.0000    0.0000
       92 N2     4f3+       0.0000   -0.0000    0.0000    0.0000   -0.0000   -0.0000   -0.0000    0.0000   -0.0000    0.0000
       93 X1     1s         0.0000    0.0000   -0.0000    0.0000   35.2232   -2.8673   -0.0000    0.0000   -0.0000    0.0000
       94 X1     1s        -0.0000   -0.0000    0.0000   -0.0000   -9.1631    3.8226    0.0000   -0.0000    0.0000   -0.0000
       95 X1     1s         0.0000    0.0000   -0.0000    0.0000    1.8866   -1.1480   -0.0000    0.0000   -0.0000    0.0000
       96 X1     2px        0.0000   -0.0000    5.2563   -0.0506    0.0000    0.0000    0.0000   -0.0000    0.0000    0.0000
       97 X1     2px       -0.0000    0.0000   -3.2094    0.0309   -0.0000   -0.0000   -0.0000    0.0000   -0.0000   -0.0000
       98 X1     2px        0.0000   -0.0000    0.9611   -0.0093   -0.0000    0.0000    0.0000   -0.0000   -0.0000   -0.0000
       99 X1     2py       -0.0000   -0.0000   -0.0506   -5.2563    0.0000    0.0000   -0.0000    0.0000    0.0000    0.0000
      100 X1     2py        0.0000    0.0000    0.0309    3.2094   -0.0000   -0.0000    0.0000   -0.0000   -0.0000   -0.0000
      101 X1     2py       -0.0000   -0.0000   -0.0093   -0.9611   -0.0000    0.0000   -0.0000    0.0000    0.0000   -0.0000
      102 X1     2pz       -0.0000   -9.9215   -0.0000    0.0000    0.0000   -0.0000    0.0000   -0.0000   -2.1277   -0.0000
      103 X1     2pz        0.0000    3.8915    0.0000    0.0000   -0.0000    0.0000   -0.0000   -0.0000   -0.3416   -0.0000
      104 X1     2pz       -0.0000   -0.9353   -0.0000   -0.0000    0.0000   -0.0000    0.0000   -0.0000    0.2457    0.0000
      105 X1     3d2-       0.0000    0.0000    0.0000   -0.0000   -0.0000    0.0000    0.0000   -0.0000   -0.0000    2.9659
      106 X1     3d2-       0.0000   -0.0000   -0.0000    0.0000    0.0000   -0.0000   -0.0000    0.0000    0.0000   -2.7370
      107 X1     3d2-      -0.0000    0.0000    0.0000   -0.0000   -0.0000    0.0000    0.0000   -0.0000   -0.0000    0.9872
      108 X1     3d1-      -0.0001   -0.0000   -0.0000   -0.0000    0.0000   -0.0000    5.5849   -0.0002   -0.0000    0.0000
      109 X1     3d1-      -0.0006   -0.0000   -0.0000   -0.0000    0.0000   -0.0000   14.6477   -0.0004   -0.0000   -0.0000
      110 X1     3d1-       0.0001    0.0000    0.0000    0.0000    0.0000    0.0000   -1.8052    0.0001    0.0000    0.0000
      111 X1     3d0        0.0000    0.0000   -0.0000    0.0000    5.0615   -0.8178   -0.0000   -0.0000   -0.0000    0.0000
      112 X1     3d0        0.0000    0.0000   -0.0000    0.0000   12.5025    4.0914   -0.0000    0.0000   -0.0000   -0.0000
      113 X1     3d0        0.0000   -0.0000    0.0000   -0.0000   -1.4604   -0.8862    0.0000   -0.0000   -0.0000    0.0000
      114 X1     3d1+       2.0533   -0.0000    0.0000   -0.0000    0.0000   -0.0000    0.0002    5.5849   -0.0000   -0.0000
      115 X1     3d1+       9.4980   -0.0000    0.0000   -0.0000    0.0000    0.0000    0.0004   14.6477   -0.0000    0.0000
      116 X1     3d1+      -1.7836    0.0000   -0.0000    0.0000    0.0000    0.0000   -0.0001   -1.8052    0.0000   -0.0000
      117 X1     3d2+      -0.0000    0.0000    0.0000    0.0000    0.0000    0.0000   -0.0000   -0.0000    0.0000   -0.0000
      118 X1     3d2+       0.0000   -0.0000   -0.0000   -0.0000   -0.0000   -0.0000   -0.0000    0.0000   -0.0000    0.0000
      119 X1     3d2+       0.0000    0.0000    0.0000    0.0000    0.0000    0.0000    0.0000   -0.0000    0.0000   -0.0000

          Orbital           41    
          Energy            0.3536
          Occ. No.          0.0000

        1 N1     1s        -0.0000
        2 N1     1s        -0.0000
        3 N1     1s        -0.0000
        4 N1     1s         0.0000
        5 N1     1s         0.0000
        6 N1     2px       -0.0000
        7 N1     2px        0.0000
        8 N1     2px        0.0000
        9 N1     2px       -0.0000
       10 N1     2py        0.0000
       11 N1     2py       -0.0000
       12 N1     2py       -0.0000
       13 N1     2py       -0.0000
       14 N1     2pz       -0.0000
       15 N1     2pz       -0.0000
       16 N1     2pz       -0.0000
       17 N1     2pz        0.0000
       18 N1     3d2-      -0.0000
       19 N1     3d2-       0.0000
       20 N1     3d2-      -0.0000
       21 N1     3d1-      -0.0000
       22 N1     3d1-       0.0000
       23 N1     3d1-      -0.0000
       24 N1     3d0        0.0000
       25 N1     3d0        0.0000
[...]
   9         0.05672848     -0.00000000      0.00000000      0.00000000     -0.00000000
  10        -0.00000000     -0.00013046      0.00000002     -0.00000000     -0.02591805

                6               7               8               9              10
   6         0.21639578
   7        -0.00000081      0.21641039
   8        -0.00000004      0.00000003      0.21633950
   9         0.00000000      0.00000000     -0.00000000      0.27511847
  10        -0.00000000     -0.00000000      0.00002164      0.00000000      0.20676609

       Total XMS-CASPT2 energies:
::    XMS-CASPT2 Root  1     Total energy:   -109.36009153
::    XMS-CASPT2 Root  2     Total energy:   -108.99533925
::    XMS-CASPT2 Root  3     Total energy:   -108.97584769
::    XMS-CASPT2 Root  4     Total energy:   -108.97445416
::    XMS-CASPT2 Root  5     Total energy:   -108.81693938
::    XMS-CASPT2 Root  6     Total energy:   -108.78352640
::    XMS-CASPT2 Root  7     Total energy:   -108.78351090
::    XMS-CASPT2 Root  8     Total energy:   -108.78322554
::    XMS-CASPT2 Root  9     Total energy:   -108.76489683
::    XMS-CASPT2 Root 10     Total energy:   -108.71981530

       Eigenvectors:
            0.99603586     -0.00000000     -0.00000000     -0.00000000      0.00000000
            0.00000000      0.99897394      0.00000023     -0.00000004     -0.00075715
            0.00000000      0.00000001      0.13612488      0.99048642      0.00000008
            0.00000000     -0.00000024      0.99048486     -0.13612342     -0.00000002
           -0.00000000      0.00031038      0.00000001     -0.00000008      0.67490962
            0.00000000      0.00000002      0.01424774      0.01427400      0.00000136
            0.00000000     -0.00000002     -0.01437941      0.01425872      0.00000141
           -0.00000000     -0.04528245     -0.00000003      0.00000001     -0.00084172
           -0.08895263     -0.00000000     -0.00000000     -0.00000000      0.00000000
            0.00000000      0.00068950      0.00000000     -0.00000010      0.73789954

           -0.00000001     -0.00000000      0.00000000     -0.00000000      0.08895263
            0.00000498     -0.00000536      0.04528170     -0.00025827     -0.00000000
           -0.01708229     -0.01071709      0.00000061     -0.00000006     -0.00000000
           -0.01071129      0.01718811      0.00000324      0.00000001     -0.00000000
            0.00000089      0.00000079      0.00022902     -0.73790030     -0.00000000
            0.99597568     -0.08732519     -0.00012034      0.00000231      0.00000003
            0.08732640      0.99597390      0.00010877      0.00000249      0.00000000
            0.00011029     -0.00011877      0.99897374     -0.00047886     -0.00000001
           -0.00000003     -0.00000000      0.00000001     -0.00000000      0.99603586
           -0.00000268     -0.00000260      0.00097652      0.67490951      0.00000000

       In terms of the input states:
            0.99999035     -0.00000000     -0.00000000     -0.00000000      0.00000000
            0.00000000      0.99995777      0.00000023     -0.00000004     -0.00071022
            0.00000000     -0.00000007      0.45612952      0.88987100      0.00000012
            0.00000000     -0.00000023      0.88987184     -0.45612990     -0.00000007
           -0.00000000      0.00050268      0.00000001     -0.00000010      0.86496139
            0.00000000      0.00000002     -0.00485822     -0.00719874      0.00000160
           -0.00000000     -0.00000003      0.00709750     -0.00482683      0.00000111
           -0.00000000      0.00915938     -0.00000001      0.00000000     -0.00088163
            0.00439299     -0.00000000     -0.00000000     -0.00000000      0.00000000
            0.00000000      0.00056486      0.00000000     -0.00000007      0.50183714

           -0.00000000     -0.00000000      0.00000000     -0.00000000     -0.00439299
           -0.00000103      0.00000112     -0.00916012     -0.00023182      0.00000000
            0.00845552      0.00199162     -0.00000069      0.00000003      0.00000000
            0.00196210     -0.00835372     -0.00000119     -0.00000001      0.00000000
            0.00000004     -0.00000002      0.00051091     -0.50183791     -0.00000000
            0.99400194      0.10901697     -0.00009678      0.00000275      0.00000003
           -0.10901732      0.99400278      0.00013022      0.00000199     -0.00000000
            0.00011040     -0.00011889      0.99995753     -0.00049234     -0.00000001
           -0.00000004     -0.00000000      0.00000001     -0.00000000      0.99999035
           -0.00000282     -0.00000272      0.00086316      0.86496151      0.00000000

--

  THE ORIGINAL CI ARRAYS ARE NOW MIXED AS LINEAR
  COMBINATIONS, GIVEN BY THE EIGENVECTORS.
  A NEW JOBIPH FILE NAMED 'JOBMIX' IS PREPARED.
********************************************************************************

++ Mixed CI coefficients:
  The CI coefficients for the MIXED state nr.   1
--------------------------------------------------------------------------------
 CI COEFFICIENTS LARGER THAN  0.50D-01
  Occupation of active orbitals, and spin coupling
  of open shells. (u,d: Spin up or down).
  SGUGA info is (Midvert:IsyUp:UpperWalk/LowerWalk)
        Conf  SGUGA info        Occupation     Coefficient         Weight
           1  ( 1:1:   1/   1)   2200000000      -0.967561       0.936173
           4  ( 1:1:   1/   4)   2020000000       0.077708       0.006039
           5  ( 1:1:   1/   5)   ud20000000       0.079892       0.006383
           6  ( 1:1:   1/   6)   0220000000       0.073632       0.005422
           9  ( 1:1:   1/   9)   20ud000000       0.079892       0.006383
          11  ( 1:1:   1/  11)   02ud000000      -0.079892       0.006383
          12  ( 1:1:   1/  12)   uudd000000      -0.099446       0.009890
          15  ( 1:1:   1/  15)   2002000000       0.073632       0.005422
          16  ( 1:1:   1/  16)   ud02000000      -0.079892       0.006383
          17  ( 1:1:   1/  17)   0202000000       0.077708       0.006039

  The CI coefficients for the MIXED state nr.   2
--------------------------------------------------------------------------------
 CI COEFFICIENTS LARGER THAN  0.50D-01
  Occupation of active orbitals, and spin coupling
  of open shells. (u,d: Spin up or down).
  SGUGA info is (Midvert:IsyUp:UpperWalk/LowerWalk)
        Conf  SGUGA info        Occupation     Coefficient         Weight
           2  ( 1:1:   1/   2)   2ud0000000       0.482335       0.232647
           3  ( 1:1:   1/   3)   u2d0000000      -0.500435       0.250435
           7  ( 1:1:   1/   7)   2u0d000000      -0.500435       0.250435
           8  ( 1:1:   1/   8)   u20d000000      -0.482334       0.232647
          13  ( 1:1:   1/  13)   u02d000000       0.059378       0.003526
          14  ( 1:1:   1/  14)   0u2d000000      -0.061700       0.003807
          18  ( 1:1:   1/  18)   u0d2000000      -0.061700       0.003807
          19  ( 1:1:   1/  19)   0ud2000000      -0.059378       0.003526
          21  ( 1:1:   1/  21)   2u00d00000      -0.068369       0.004674
          56  ( 2:1:   1/   2)   u2000d0000       0.068369       0.004674

  The CI coefficients for the MIXED state nr.   3
--------------------------------------------------------------------------------
 CI COEFFICIENTS LARGER THAN  0.50D-01
  Occupation of active orbitals, and spin coupling
  of open shells. (u,d: Spin up or down).
  SGUGA info is (Midvert:IsyUp:UpperWalk/LowerWalk)
        Conf  SGUGA info        Occupation     Coefficient         Weight
           2  ( 1:1:   1/   2)   2ud0000000      -0.680663       0.463302
           3  ( 1:1:   1/   3)   u2d0000000       0.149286       0.022286
           7  ( 1:1:   1/   7)   2u0d000000      -0.149286       0.022286
           8  ( 1:1:   1/   8)   u20d000000      -0.680663       0.463302
          13  ( 1:1:   1/  13)   u02d000000      -0.060759       0.003692
          19  ( 1:1:   1/  19)   0ud2000000      -0.060759       0.003692
          21  ( 1:1:   1/  21)   2u00d00000       0.057943       0.003357
          54  ( 2:1:   4/   1)   2u000000d0      -0.060195       0.003623
          56  ( 2:1:   1/   2)   u2000d0000       0.057943       0.003357
          60  ( 2:1:   5/   2)   u20000000d      -0.060195       0.003623

  The CI coefficients for the MIXED state nr.   4
--------------------------------------------------------------------------------
 CI COEFFICIENTS LARGER THAN  0.50D-01
  Occupation of active orbitals, and spin coupling
  of open shells. (u,d: Spin up or down).
  SGUGA info is (Midvert:IsyUp:UpperWalk/LowerWalk)
        Conf  SGUGA info        Occupation     Coefficient         Weight
           2  ( 1:1:   1/   2)   2ud0000000      -0.149291       0.022288
           3  ( 1:1:   1/   3)   u2d0000000      -0.680665       0.463305
           7  ( 1:1:   1/   7)   2u0d000000       0.680665       0.463305
           8  ( 1:1:   1/   8)   u20d000000      -0.149291       0.022288
          14  ( 1:1:   1/  14)   0u2d000000      -0.060759       0.003692
          18  ( 1:1:   1/  18)   u0d2000000       0.060759       0.003692
          22  ( 1:1:   1/  22)   u200d00000       0.057937       0.003357
          51  ( 2:1:   1/   1)   2u000d0000      -0.057937       0.003357
          55  ( 2:1:   5/   1)   2u0000000d       0.060198       0.003624
          59  ( 2:1:   4/   2)   u2000000d0      -0.060198       0.003624

  The CI coefficients for the MIXED state nr.   5
--------------------------------------------------------------------------------
 CI COEFFICIENTS LARGER THAN  0.50D-01
  Occupation of active orbitals, and spin coupling
  of open shells. (u,d: Spin up or down).
  SGUGA info is (Midvert:IsyUp:UpperWalk/LowerWalk)
        Conf  SGUGA info        Occupation     Coefficient         Weight
           2  ( 1:1:   1/   2)   2ud0000000      -0.249889       0.062445
           3  ( 1:1:   1/   3)   u2d0000000      -0.240275       0.057732
           7  ( 1:1:   1/   7)   2u0d000000      -0.240275       0.057732
           8  ( 1:1:   1/   8)   u20d000000       0.249889       0.062445
          13  ( 1:1:   1/  13)   u02d000000      -0.090647       0.008217
          14  ( 1:1:   1/  14)   0u2d000000      -0.087349       0.007630
          18  ( 1:1:   1/  18)   u0d2000000      -0.087349       0.007630
          19  ( 1:1:   1/  19)   0ud2000000       0.090647       0.008217
          21  ( 1:1:   1/  21)   2u00d00000      -0.118113       0.013951
          22  ( 1:1:   1/  22)   u200d00000      -0.255637       0.065350
          51  ( 2:1:   1/   1)   2u000d0000      -0.255639       0.065351
          52  ( 2:1:   2/   1)   2u0000d000       0.050572       0.002558
          53  ( 2:1:   3/   1)   2u00000d00       0.280588       0.078730
          54  ( 2:1:   4/   1)   2u000000d0      -0.216896       0.047044
          55  ( 2:1:   5/   1)   2u0000000d      -0.380168       0.144528
          56  ( 2:1:   1/   2)   u2000d0000       0.118115       0.013951
          57  ( 2:1:   2/   2)   u20000d000       0.280587       0.078729
          58  ( 2:1:   3/   2)   u200000d00      -0.050572       0.002558
          59  ( 2:1:   4/   2)   u2000000d0      -0.380167       0.144527
          60  ( 2:1:   5/   2)   u20000000d       0.216896       0.047044

  The CI coefficients for the MIXED state nr.   6
--------------------------------------------------------------------------------
 CI COEFFICIENTS LARGER THAN  0.50D-01
  Occupation of active orbitals, and spin coupling
  of open shells. (u,d: Spin up or down).
  SGUGA info is (Midvert:IsyUp:UpperWalk/LowerWalk)
        Conf  SGUGA info        Occupation     Coefficient         Weight
          21  ( 1:1:   1/  21)   2u00d00000       0.628310       0.394774
          22  ( 1:1:   1/  22)   u200d00000       0.183534       0.033685
          37  ( 1:1:   1/  37)   0uudd00000      -0.058865       0.003465
          38  ( 1:1:   1/  38)   u002d00000      -0.055188       0.003046
          39  ( 1:1:   1/  39)   0u02d00000       0.065251       0.004258
          51  ( 2:1:   1/   1)   2u000d0000      -0.183596       0.033707
          52  ( 2:1:   2/   1)   2u0000d000      -0.158010       0.024967
          54  ( 2:1:   4/   1)   2u000000d0       0.144838       0.020978
          55  ( 2:1:   5/   1)   2u0000000d      -0.056409       0.003182
          56  ( 2:1:   1/   2)   u2000d0000       0.628180       0.394610
          58  ( 2:1:   3/   2)   u200000d00      -0.157976       0.024956
          59  ( 2:1:   4/   2)   u2000000d0       0.056394       0.003180
          60  ( 2:1:   5/   2)   u20000000d       0.144807       0.020969
          81  ( 2:1:   1/   7)   u0200d0000      -0.065243       0.004257
          86  ( 2:1:   1/   8)   0u200d0000      -0.055185       0.003045
         111  ( 2:1:   1/  13)   0udu0d0000       0.065714       0.004318

  The CI coefficients for the MIXED state nr.   7
--------------------------------------------------------------------------------
 CI COEFFICIENTS LARGER THAN  0.50D-01
  Occupation of active orbitals, and spin coupling
  of open shells. (u,d: Spin up or down).
  SGUGA info is (Midvert:IsyUp:UpperWalk/LowerWalk)
        Conf  SGUGA info        Occupation     Coefficient         Weight
          21  ( 1:1:   1/  21)   2u00d00000      -0.183631       0.033720
          22  ( 1:1:   1/  22)   u200d00000       0.628272       0.394725
          27  ( 1:1:   1/  27)   u020d00000      -0.065454       0.004284
          28  ( 1:1:   1/  28)   0u20d00000      -0.055525       0.003083
          33  ( 1:1:   1/  33)   0udud00000       0.065583       0.004301
          51  ( 2:1:   1/   1)   2u000d0000      -0.628209       0.394646
          53  ( 2:1:   3/   1)   2u00000d00       0.157990       0.024961
          54  ( 2:1:   4/   1)   2u000000d0      -0.056422       0.003183
          55  ( 2:1:   5/   1)   2u0000000d      -0.144817       0.020972
          56  ( 2:1:   1/   2)   u2000d0000      -0.183488       0.033668
          57  ( 2:1:   2/   2)   u20000d000      -0.157998       0.024963
          59  ( 2:1:   4/   2)   u2000000d0       0.144837       0.020978
          60  ( 2:1:   5/   2)   u20000000d      -0.056392       0.003180
         131  ( 2:1:   1/  17)   0uud0d0000       0.058451       0.003417
         136  ( 2:1:   1/  18)   u0020d0000       0.055510       0.003081
         141  ( 2:1:   1/  19)   0u020d0000      -0.065440       0.004282

  The CI coefficients for the MIXED state nr.   8
--------------------------------------------------------------------------------
 CI COEFFICIENTS LARGER THAN  0.50D-01
  Occupation of active orbitals, and spin coupling
  of open shells. (u,d: Spin up or down).
  SGUGA info is (Midvert:IsyUp:UpperWalk/LowerWalk)
        Conf  SGUGA info        Occupation     Coefficient         Weight
          21  ( 1:1:   1/  21)   2u00d00000       0.594444       0.353363
          22  ( 1:1:   1/  22)   u200d00000      -0.273248       0.074664
          27  ( 1:1:   1/  27)   u020d00000       0.061921       0.003834
          28  ( 1:1:   1/  28)   0u20d00000       0.065819       0.004332
          32  ( 1:1:   1/  32)   u0dud00000       0.064382       0.004145
          33  ( 1:1:   1/  33)   0udud00000      -0.051972       0.002701
          51  ( 2:1:   1/   1)   2u000d0000      -0.273357       0.074724
          52  ( 2:1:   2/   1)   2u0000d000      -0.153436       0.023543
          54  ( 2:1:   4/   1)   2u000000d0       0.134139       0.017993
          55  ( 2:1:   5/   1)   2u0000000d      -0.077064       0.005939
          56  ( 2:1:   1/   2)   u2000d0000      -0.594626       0.353580
          58  ( 2:1:   3/   2)   u200000d00       0.153472       0.023554
          59  ( 2:1:   4/   2)   u2000000d0      -0.077042       0.005936
          60  ( 2:1:   5/   2)   u20000000d      -0.134184       0.018005
         126  ( 2:1:   1/  16)   u0ud0d0000       0.062010       0.003845
         131  ( 2:1:   1/  17)   0uud0d0000       0.050510       0.002551
         136  ( 2:1:   1/  18)   u0020d0000       0.065841       0.004335
         141  ( 2:1:   1/  19)   0u020d0000      -0.061942       0.003837

  The CI coefficients for the MIXED state nr.   9
--------------------------------------------------------------------------------
 CI COEFFICIENTS LARGER THAN  0.50D-01
  Occupation of active orbitals, and spin coupling
  of open shells. (u,d: Spin up or down).
  SGUGA info is (Midvert:IsyUp:UpperWalk/LowerWalk)
        Conf  SGUGA info        Occupation     Coefficient         Weight
           2  ( 1:1:   1/   2)   2ud0000000      -0.056251       0.003164
           3  ( 1:1:   1/   3)   u2d0000000      -0.053992       0.002915
           7  ( 1:1:   1/   7)   2u0d000000      -0.053992       0.002915
           8  ( 1:1:   1/   8)   u20d000000       0.056251       0.003164
          21  ( 1:1:   1/  21)   2u00d00000       0.261565       0.068416
          22  ( 1:1:   1/  22)   u200d00000       0.569586       0.324429
          36  ( 1:1:   1/  36)   u0udd00000      -0.061562       0.003790
          37  ( 1:1:   1/  37)   0uudd00000      -0.050796       0.002580
          38  ( 1:1:   1/  38)   u002d00000      -0.064263       0.004130
          39  ( 1:1:   1/  39)   0u02d00000       0.060728       0.003688
          51  ( 2:1:   1/   1)   2u000d0000       0.569583       0.324424
          53  ( 2:1:   3/   1)   2u00000d00       0.125915       0.015855
          54  ( 2:1:   4/   1)   2u000000d0      -0.123089       0.015151
          55  ( 2:1:   5/   1)   2u0000000d      -0.215767       0.046556
          56  ( 2:1:   1/   2)   u2000d0000      -0.261562       0.068415
          57  ( 2:1:   2/   2)   u20000d000       0.125914       0.015854
          59  ( 2:1:   4/   2)   u2000000d0      -0.215766       0.046555
          60  ( 2:1:   5/   2)   u20000000d       0.123089       0.015151
          81  ( 2:1:   1/   7)   u0200d0000       0.060728       0.003688
          86  ( 2:1:   1/   8)   0u200d0000       0.064263       0.004130
         106  ( 2:1:   1/  12)   u0du0d0000       0.065268       0.004260
         111  ( 2:1:   1/  13)   0udu0d0000      -0.052049       0.002709

  The CI coefficients for the MIXED state nr.  10
--------------------------------------------------------------------------------
 CI COEFFICIENTS LARGER THAN  0.50D-01
  Occupation of active orbitals, and spin coupling
  of open shells. (u,d: Spin up or down).
  SGUGA info is (Midvert:IsyUp:UpperWalk/LowerWalk)
        Conf  SGUGA info        Occupation     Coefficient         Weight
           1  ( 1:1:   1/   1)   2200000000      -0.084046       0.007064
           4  ( 1:1:   1/   4)   2020000000      -0.114943       0.013212
           5  ( 1:1:   1/   5)   ud20000000      -0.344911       0.118964
           6  ( 1:1:   1/   6)   0220000000      -0.097345       0.009476
           9  ( 1:1:   1/   9)   20ud000000      -0.344911       0.118964
          11  ( 1:1:   1/  11)   02ud000000       0.344911       0.118964
          12  ( 1:1:   1/  12)   uudd000000      -0.658455       0.433562
          15  ( 1:1:   1/  15)   2002000000      -0.097345       0.009476
          16  ( 1:1:   1/  16)   ud02000000       0.344911       0.118964
          17  ( 1:1:   1/  17)   0202000000      -0.114943       0.013212
          24  ( 1:1:   1/  24)   udu0d00000       0.058835       0.003462
          35  ( 1:1:   1/  35)   uu0dd00000      -0.079083       0.006254
          76  ( 2:1:   1/   6)   uud00d0000       0.079083       0.006254
          96  ( 2:1:   1/  10)   ud0u0d0000      -0.058835       0.003462

--

--- Stop Module: caspt2 at Thu Aug 20 07:04:37 2020 /rc=_RC_ALL_IS_WELL_ ---
*** files: xmldump
    saved to directory /home/gayverjr/OpenCAP/molcas_example
--- Module caspt2 spent 2 minutes 20 seconds ---

.##################.
.# Happy landing! #.
.##################.

    Timing: Wall=530.61 User=4314.93 System=191.28
