[Molden Format]
made by pyscf v[1.7.6]
[Atoms] (ANGS)
Ghost   1  0   0.0000000000 0.0000000000  -0.7400000000
Ghost   2  0   0.0000000000 0.0000000000  0.7400000000
H   3   1     0.0000000000 0.0000000000  0.3705000000
H   4   1     0.0000000000 0.0000000000  -0.3705000000
[GTO]
1 0
 s    1 1.00
              0.011815                   1
 s    1 1.00
             0.0059075                   1
 s    1 1.00
            0.00295375                   1
 s    1 1.00
           0.001476875                   1
 p    1 1.00
                0.0424                   1
 p    1 1.00
                0.0212                   1
 p    1 1.00
                0.0106                   1
 p    1 1.00
                0.0053                   1

2 0
 s    1 1.00
              0.011815                   1
 s    1 1.00
             0.0059075                   1
 s    1 1.00
            0.00295375                   1
 s    1 1.00
           0.001476875                   1
 p    1 1.00
                0.0424                   1
 p    1 1.00
                0.0212                   1
 p    1 1.00
                0.0106                   1
 p    1 1.00
                0.0053                   1

3 0
 s    3 1.00
                 82.64   0.022950757792906
                 12.41    0.17554011805411
                 2.824    0.86470355096212
 s    1 1.00
                0.7977                   1
 s    1 1.00
                0.2581                   1
 s    1 1.00
               0.08989                   1
 s    1 1.00
               0.02363                   1
 p    1 1.00
                 2.292                   1
 p    1 1.00
                 0.838                   1
 p    1 1.00
                 0.292                   1
 p    1 1.00
                0.0848                   1
 d    1 1.00
                 2.062                   1
 d    1 1.00
                 0.662                   1
 d    1 1.00
                  0.19                   1
 f    1 1.00
                 1.397                   1
 f    1 1.00
                  0.36                   1

4 0
 s    3 1.00
                 82.64   0.022950757792906
                 12.41    0.17554011805411
                 2.824    0.86470355096212
 s    1 1.00
                0.7977                   1
 s    1 1.00
                0.2581                   1
 s    1 1.00
               0.08989                   1
 s    1 1.00
               0.02363                   1
 p    1 1.00
                 2.292                   1
 p    1 1.00
                 0.838                   1
 p    1 1.00
                 0.292                   1
 p    1 1.00
                0.0848                   1
 d    1 1.00
                 2.062                   1
 d    1 1.00
                 0.662                   1
 d    1 1.00
                  0.19                   1
 f    1 1.00
                 1.397                   1
 f    1 1.00
                  0.36                   1

[5d]
[7f]
[9g]

[MO]
 Sym= Ag
 Ene=   -0.5945665459
 Spin= Alpha
 Occup=    2.00000
   1     0.010647006357091
   2    -0.0073963241402372
   3    0.0033150400881235
   4    -0.00078896929866533
   5                     0
   6                     0
   7    -0.0099943318331608
   8                     0
   9                     0
  10     0.010370716593913
  11                     0
  12                     0
  13    -0.0067449255744526
  14                     0
  15                     0
  16    0.0026844925835654
  17     0.010647006357091
  18    -0.0073963241402372
  19    0.0033150400881235
  20    -0.00078896929866533
  21                     0
  22                     0
  23    0.0099943318331608
  24                     0
  25                     0
  26    -0.010370716593913
  27                     0
  28                     0
  29    0.0067449255744526
  30                     0
  31                     0
  32    -0.0026844925835654
  33     0.071293104040741
  34      0.18636088191041
  35      0.25450240860784
  36      0.10151807372831
  37    -0.0084657610790198
  38                     0
  39                     0
  40     -0.00562377087525
  41                     0
  42                     0
  43    -0.011444298360164
  44                     0
  45                     0
  46    -0.015418524631294
  47                     0
  48                     0
  49    -0.016638394580965
  50    0.0014782751797066
  51                     0
  52                     0
  53    -1.5834096464052e-20
  54                     0
  55    -0.00041572087915494
  56                     0
  57                     0
  58    1.1647450911417e-20
  59                     0
  60    0.0018213043389224
  61                     0
  62                     0
  63    -4.8414703497065e-21
  64                     0
  65    6.4461403493125e-05
  66                     0
  67                     0
  68    4.3062023190897e-20
  69                     0
  70                     0
  71                     0
  72    0.00059857603740811
  73                     0
  74                     0
  75    -1.6634343469878e-20
  76                     0
  77                     0
  78                     0
  79     0.071293104040741
  80      0.18636088191041
  81      0.25450240860784
  82      0.10151807372831
  83    -0.0084657610790198
  84                     0
  85                     0
  86      0.00562377087525
  87                     0
  88                     0
  89     0.011444298360164
  90                     0
  91                     0
  92     0.015418524631294
  93                     0
  94                     0
  95     0.016638394580965
  96    0.0014782751797066
  97                     0
  98                     0
  99    -1.5834096464052e-20
 100                     0
 101    -0.00041572087915494
 102                     0
 103                     0
 104    1.1647450911417e-20
 105                     0
 106    0.0018213043389224
 107                     0
 108                     0
 109    -4.8414703497065e-21
 110                     0
 111    -6.4461403493125e-05
 112                     0
 113                     0
 114    -4.3062023190897e-20
 115                     0
 116                     0
 117                     0
 118    -0.00059857603740811
 119                     0
 120                     0
 121    1.6634343469878e-20
 122                     0
 123                     0
 124                     0
 Sym= Ag
 Ene=   0.00165750105
 Spin= Alpha
 Occup=    0.00000
   1      0.35954026382021
   2     -0.76753792908612
   3       1.2340769297091
   4      -1.1903709875801
   5                     0
   6                     0
   7    0.0025718555850807
   8                     0
   9                     0
  10     0.040006722182148
  11                     0
  12                     0
  13    -0.095832299778325
  14                     0
  15                     0
  16      0.12896473573075
  17      0.35954026382021
  18     -0.76753792908612
  19       1.2340769297091
  20      -1.1903709875801
  21                     0
  22                     0
  23    -0.0025718555850807
  24                     0
  25                     0
  26    -0.040006722182148
  27                     0
  28                     0
  29     0.095832299778325
  30                     0
  31                     0
  32     -0.12896473573075
  33    0.00083219940138571
  34    0.0040808360586967
  35    0.0028194378593757
  36      0.01635394767588
  37    -0.093244721788759
  38                     0
  39                     0
  40    -0.00024154411112535
  41                     0
  42                     0
  43    5.6718810398734e-05
  44                     0
  45                     0
  46    0.0010168445453371
  47                     0
  48                     0
  49     0.011349351761054
  50    1.4744658102641e-05
  51                     0
  52                     0
  53    -1.2637838920508e-16
  54                     0
  55    -0.00043974430782068
  56                     0
  57                     0
  58    5.9710103426883e-17
  59                     0
  60    -0.0019474509171412
  61                     0
  62                     0
  63    -1.1332641050451e-16
  64                     0
  65    0.00012045991198755
  66                     0
  67                     0
  68    -4.5108743158459e-19
  69                     0
  70                     0
  71                     0
  72    0.00019209360900426
  73                     0
  74                     0
  75    -8.3175485877427e-18
  76                     0
  77                     0
  78                     0
  79    0.00083219940138571
  80    0.0040808360586967
  81    0.0028194378593757
  82      0.01635394767588
  83    -0.093244721788759
  84                     0
  85                     0
  86    0.00024154411112535
  87                     0
  88                     0
  89    -5.6718810398734e-05
  90                     0
  91                     0
  92    -0.0010168445453371
  93                     0
  94                     0
  95    -0.011349351761054
  96    1.4744658102641e-05
  97                     0
  98                     0
  99    -1.2637838920508e-16
 100                     0
 101    -0.00043974430782068
 102                     0
 103                     0
 104    5.9710103426883e-17
 105                     0
 106    -0.0019474509171412
 107                     0
 108                     0
 109    -1.1332641050451e-16
 110                     0
 111    -0.00012045991198755
 112                     0
 113                     0
 114    4.5108743158459e-19
 115                     0
 116                     0
 117                     0
 118    -0.00019209360900426
 119                     0
 120                     0
 121    8.3175485877427e-18
 122                     0
 123                     0
 124                     0
 Sym= B1u
 Ene=   0.00261072086
 Spin= Alpha
 Occup=    0.00000
   1      -8.4222944011354
   2        36.59362913463
   3       23.187802138334
   4      -21.656637659661
   5                     0
   6                     0
   7      0.11279736928167
   8                     0
   9                     0
  10     -0.17406180833189
  11                     0
  12                     0
  13      -1.0235916795384
  14                     0
  15                     0
  16       4.9494297083476
  17       8.4222944011354
  18       -36.59362913463
  19      -23.187802138334
  20       21.656637659661
  21                     0
  22                     0
  23      0.11279736928167
  24                     0
  25                     0
  26     -0.17406180833189
  27                     0
  28                     0
  29      -1.0235916795384
  30                     0
  31                     0
  32       4.9494297083476
  33    0.00012568429166807
  34    -0.00018526189729486
  35     0.030243786497307
  36      0.56782968323733
  37     -0.87600473736494
  38                     0
  39                     0
  40    -3.8645193765361e-05
  41                     0
  42                     0
  43    0.0010324437993966
  44                     0
  45                     0
  46    -0.012317091030068
  47                     0
  48                     0
  49     -0.15139700359834
  50    -9.106791206051e-05
  51                     0
  52                     0
  53    -4.9214274906569e-17
  54                     0
  55    -3.3549833877445e-06
  56                     0
  57                     0
  58    -6.2134469230858e-18
  59                     0
  60    0.0047283513476056
  61                     0
  62                     0
  63    -2.0473969101436e-16
  64                     0
  65    3.3565884962779e-05
  66                     0
  67                     0
  68    2.5416118097653e-17
  69                     0
  70                     0
  71                     0
  72    -2.702255910982e-05
  73                     0
  74                     0
  75    1.4200576229146e-16
  76                     0
  77                     0
  78                     0
  79    -0.00012568429166807
  80    0.00018526189729486
  81    -0.030243786497307
  82     -0.56782968323733
  83      0.87600473736494
  84                     0
  85                     0
  86    -3.8645193765361e-05
  87                     0
  88                     0
  89    0.0010324437993966
  90                     0
  91                     0
  92    -0.012317091030068
  93                     0
  94                     0
  95     -0.15139700359834
  96    9.106791206051e-05
  97                     0
  98                     0
  99    4.9214274906569e-17
 100                     0
 101    3.3549833877445e-06
 102                     0
 103                     0
 104    6.2134469230858e-18
 105                     0
 106    -0.0047283513476056
 107                     0
 108                     0
 109    2.0473969101436e-16
 110                     0
 111    3.3565884962779e-05
 112                     0
 113                     0
 114    2.5416118097653e-17
 115                     0
 116                     0
 117                     0
 118    -2.702255910982e-05
 119                     0
 120                     0
 121    1.4200576229146e-16
 122                     0
 123                     0
 124                     0
 Sym= Ag
 Ene=  0.007498854551
 Spin= Alpha
 Occup=    0.00000
   1      0.98758524439815
   2      -2.2456873487934
   3       3.3196728801627
   4      -1.6363124757632
   5                     0
   6                     0
   7    -0.0038591906541961
   8                     0
   9                     0
  10      0.11975773099929
  11                     0
  12                     0
  13      -0.3094638843312
  14                     0
  15                     0
  16       0.4077129149892
  17      0.98758524439815
  18      -2.2456873487934
  19       3.3196728801627
  20      -1.6363124757632
  21                     0
  22                     0
  23    0.0038591906541961
  24                     0
  25                     0
  26     -0.11975773099929
  27                     0
  28                     0
  29       0.3094638843312
  30                     0
  31                     0
  32      -0.4077129149892
  33    -0.0020915606514667
  34    -0.0018231210134129
  35     -0.01296733984194
  36     0.016643224915802
  37     -0.30129704507072
  38                     0
  39                     0
  40    -0.00018674523163854
  41                     0
  42                     0
  43    0.0010595233253448
  44                     0
  45                     0
  46      0.00305334514189
  47                     0
  48                     0
  49     0.026547378500295
  50    -6.2161517013927e-05
  51                     0
  52                     0
  53    -9.7635695957841e-17
  54                     0
  55    -0.00090786746912099
  56                     0
  57                     0
  58    6.8711271156141e-17
  59                     0
  60    -0.0038542989259328
  61                     0
  62                     0
  63    -1.1561715915109e-16
  64                     0
  65    0.00028203169779696
  66                     0
  67                     0
  68    -6.6894844216294e-17
  69                     0
  70                     0
  71                     0
  72    0.0003080095026855
  73                     0
  74                     0
  75    1.3205539698405e-17
  76                     0
  77                     0
  78                     0
  79    -0.0020915606514667
  80    -0.0018231210134129
  81     -0.01296733984194
  82     0.016643224915802
  83     -0.30129704507072
  84                     0
  85                     0
  86    0.00018674523163854
  87                     0
  88                     0
  89    -0.0010595233253448
  90                     0
  91                     0
  92     -0.00305334514189
  93                     0
  94                     0
  95    -0.026547378500295
  96    -6.2161517013927e-05
  97                     0
  98                     0
  99    -9.7635695957841e-17
 100                     0
 101    -0.00090786746912099
 102                     0
 103                     0
 104    6.8711271156141e-17
 105                     0
 106    -0.0038542989259328
 107                     0
 108                     0
 109    -1.1561715915109e-16
 110                     0
 111    -0.00028203169779696
 112                     0
 113                     0
 114    6.6894844216294e-17
 115                     0
 116                     0
 117                     0
 118    -0.0003080095026855
 119                     0
 120                     0
 121    -1.3205539698405e-17
 122                     0
 123                     0
 124                     0
 Sym= B1u
 Ene=  0.008503122091
 Spin= Alpha
 Occup=    0.00000
   1      -18.458034968665
   2       89.021425601162
   3       53.543154745928
   4      -25.647863658288
   5                     0
   6                     0
   7      0.24781019026877
   8                     0
   9                     0
  10     -0.44019592940437
  11                     0
  12                     0
  13      -2.1437340584889
  14                     0
  15                     0
  16       11.915283129825
  17       18.458034968665
  18      -89.021425601162
  19      -53.543154745928
  20       25.647863658288
  21                     0
  22                     0
  23      0.24781019026877
  24                     0
  25                     0
  26     -0.44019592940437
  27                     0
  28                     0
  29      -2.1437340584889
  30                     0
  31                     0
  32       11.915283129825
  33    -0.00035726038004406
  34    -0.0018218885539248
  35     0.066019488063731
  36       1.2602671902734
  37      -1.6178285216229
  38                     0
  39                     0
  40    -0.00019059745365321
  41                     0
  42                     0
  43    0.0018518501597932
  44                     0
  45                     0
  46    -0.029150406727356
  47                     0
  48                     0
  49     -0.33898467074505
  50    -0.00017306920573013
  51                     0
  52                     0
  53    -1.8048620780777e-16
  54                     0
  55    6.6162167102481e-05
  56                     0
  57                     0
  58    1.6305500379102e-16
  59                     0
  60     0.010499480962604
  61                     0
  62                     0
  63    -3.0810847840384e-16
  64                     0
  65    5.6098440680783e-05
  66                     0
  67                     0
  68    3.5686010684031e-17
  69                     0
  70                     0
  71                     0
  72    -5.2929383053341e-05
  73                     0
  74                     0
  75    1.1922980034878e-16
  76                     0
  77                     0
  78                     0
  79    0.00035726038004406
  80    0.0018218885539248
  81    -0.066019488063731
  82      -1.2602671902734
  83       1.6178285216229
  84                     0
  85                     0
  86    -0.00019059745365321
  87                     0
  88                     0
  89    0.0018518501597932
  90                     0
  91                     0
  92    -0.029150406727356
  93                     0
  94                     0
  95     -0.33898467074505
  96    0.00017306920573013
  97                     0
  98                     0
  99    1.8048620780777e-16
 100                     0
 101    -6.6162167102481e-05
 102                     0
 103                     0
 104    -1.6305500379102e-16
 105                     0
 106    -0.010499480962604
 107                     0
 108                     0
 109    3.0810847840384e-16
 110                     0
 111    5.6098440680783e-05
 112                     0
 113                     0
 114    3.5686010684031e-17
 115                     0
 116                     0
 117                     0
 118    -5.2929383053341e-05
 119                     0
 120                     0
 121    1.1922980034878e-16
 122                     0
 123                     0
 124                     0
 Sym= B2u
 Ene=   0.01009415755
 Spin= Alpha
 Occup=    0.00000
   1                     0
   2                     0
   3                     0
   4                     0
   5                     0
   6     -0.16218068072498
   7                     0
   8                     0
   9      0.39676352788754
  10                     0
  11                     0
  12     -0.74182471409779
  13                     0
  14                     0
  15      0.92571229801761
  16                     0
  17                     0
  18                     0
  19                     0
  20                     0
  21                     0
  22     -0.16218068072498
  23                     0
  24                     0
  25      0.39676352788754
  26                     0
  27                     0
  28     -0.74182471409779
  29                     0
  30                     0
  31      0.92571229801761
  32                     0
  33                     0
  34                     0
  35                     0
  36                     0
  37                     0
  38                     0
  39    -0.00037183972417302
  40                     0
  41                     0
  42    0.0021659836062076
  43                     0
  44                     0
  45    -0.0045395812797585
  46                     0
  47                     0
  48     0.042699884090018
  49                     0
  50                     0
  51                     0
  52    8.543902343949e-05
  53                     0
  54                     0
  55                     0
  56                     0
  57    -0.00026989819467998
  58                     0
  59                     0
  60                     0
  61                     0
  62    0.0027139894019849
  63                     0
  64                     0
  65                     0
  66                     0
  67    -7.2749337752401e-05
  68                     0
  69                     0
  70                     0
  71    -6.853728169711e-20
  72                     0
  73                     0
  74    -0.00033382845492448
  75                     0
  76                     0
  77                     0
  78    1.6459758355372e-17
  79                     0
  80                     0
  81                     0
  82                     0
  83                     0
  84                     0
  85    -0.00037183972417302
  86                     0
  87                     0
  88    0.0021659836062076
  89                     0
  90                     0
  91    -0.0045395812797585
  92                     0
  93                     0
  94     0.042699884090018
  95                     0
  96                     0
  97                     0
  98    -8.543902343949e-05
  99                     0
 100                     0
 101                     0
 102                     0
 103    0.00026989819467998
 104                     0
 105                     0
 106                     0
 107                     0
 108    -0.0027139894019849
 109                     0
 110                     0
 111                     0
 112                     0
 113    -7.2749337752401e-05
 114                     0
 115                     0
 116                     0
 117    -6.853728169711e-20
 118                     0
 119                     0
 120    -0.00033382845492448
 121                     0
 122                     0
 123                     0
 124    1.6459758355372e-17
 Sym= B3u
 Ene=   0.01009415755
 Spin= Alpha
 Occup=    0.00000
   1                     0
   2                     0
   3                     0
   4                     0
   5     -0.16218068072499
   6                     0
   7                     0
   8      0.39676352788754
   9                     0
  10                     0
  11     -0.74182471409777
  12                     0
  13                     0
  14       0.9257122980176
  15                     0
  16                     0
  17                     0
  18                     0
  19                     0
  20                     0
  21     -0.16218068072499
  22                     0
  23                     0
  24      0.39676352788754
  25                     0
  26                     0
  27     -0.74182471409777
  28                     0
  29                     0
  30       0.9257122980176
  31                     0
  32                     0
  33                     0
  34                     0
  35                     0
  36                     0
  37                     0
  38    -0.00037183972417328
  39                     0
  40                     0
  41    0.0021659836062085
  42                     0
  43                     0
  44    -0.0045395812797604
  45                     0
  46                     0
  47     0.042699884090025
  48                     0
  49                     0
  50                     0
  51    8.5439023439549e-05
  52                     0
  53                     0
  54                     0
  55                     0
  56    -0.00026989819467959
  57                     0
  58                     0
  59                     0
  60                     0
  61    0.0027139894019861
  62                     0
  63                     0
  64                     0
  65                     0
  66    -7.2749337752547e-05
  67                     0
  68                     0
  69                     0
  70    -1.7551917008445e-17
  71                     0
  72                     0
  73    -0.00033382845492469
  74                     0
  75                     0
  76                     0
  77    1.5098046048979e-17
  78                     0
  79                     0
  80                     0
  81                     0
  82                     0
  83                     0
  84    -0.00037183972417328
  85                     0
  86                     0
  87    0.0021659836062085
  88                     0
  89                     0
  90    -0.0045395812797604
  91                     0
  92                     0
  93     0.042699884090025
  94                     0
  95                     0
  96                     0
  97    -8.5439023439549e-05
  98                     0
  99                     0
 100                     0
 101                     0
 102    0.00026989819467959
 103                     0
 104                     0
 105                     0
 106                     0
 107    -0.0027139894019861
 108                     0
 109                     0
 110                     0
 111                     0
 112    -7.2749337752547e-05
 113                     0
 114                     0
 115                     0
 116    -1.7551917008445e-17
 117                     0
 118                     0
 119    -0.00033382845492469
 120                     0
 121                     0
 122                     0
 123    1.5098046048979e-17
 124                     0
 Sym= B2g
 Ene=    0.0149980391
 Spin= Alpha
 Occup=    0.00000
   1                     0
   2                     0
   3                     0
   4                     0
   5     -0.47904751646014
   6                     0
   7                     0
   8       1.4285052974922
   9                     0
  10                     0
  11      -3.8743417052901
  12                     0
  13                     0
  14       8.0012788219163
  15                     0
  16                     0
  17                     0
  18                     0
  19                     0
  20                     0
  21      0.47904751646014
  22                     0
  23                     0
  24      -1.4285052974922
  25                     0
  26                     0
  27       3.8743417052901
  28                     0
  29                     0
  30      -8.0012788219163
  31                     0
  32                     0
  33                     0
  34                     0
  35                     0
  36                     0
  37                     0
  38    0.0001464800131276
  39                     0
  40                     0
  41    -0.0043258469875637
  42                     0
  43                     0
  44    -0.065480043450834
  45                     0
  46                     0
  47     -0.29806392830266
  48                     0
  49                     0
  50                     0
  51    3.8293239542268e-05
  52                     0
  53                     0
  54                     0
  55                     0
  56    0.0091534514029279
  57                     0
  58                     0
  59                     0
  60                     0
  61     0.041909010553694
  62                     0
  63                     0
  64                     0
  65                     0
  66    -0.0009754636332037
  67                     0
  68                     0
  69                     0
  70    2.6430276195049e-17
  71                     0
  72                     0
  73    -0.0052025059305849
  74                     0
  75                     0
  76                     0
  77    3.5981926059202e-17
  78                     0
  79                     0
  80                     0
  81                     0
  82                     0
  83                     0
  84    -0.0001464800131276
  85                     0
  86                     0
  87    0.0043258469875637
  88                     0
  89                     0
  90     0.065480043450834
  91                     0
  92                     0
  93      0.29806392830266
  94                     0
  95                     0
  96                     0
  97    3.8293239542268e-05
  98                     0
  99                     0
 100                     0
 101                     0
 102    0.0091534514029279
 103                     0
 104                     0
 105                     0