[Molden Format]
[N_Atoms]
                    2
[Atoms] (AU)
N1          1      7           0.00000000      0.00000000      1.03934937
N2          2      7           0.00000000      0.00000000     -1.03934937
[5D]
[GTO] (AU)
   1
   s   9
  0.904600000D+04  0.700000035D-03
  0.135700000D+04  0.538900027D-02
  0.309300000D+03  0.274060014D-01
  0.877300000D+02  0.103207005D+00
  0.285600000D+02  0.278723014D+00
  0.102100000D+02  0.448540022D+00
  0.383800000D+01  0.278238014D+00
  0.746600000D+00  0.154400008D-01
  0.224800000D+00 -0.286400014D-02
   s   9
  0.904600000D+04 -0.152999989D-03
  0.135700000D+04 -0.120799991D-02
  0.309300000D+03 -0.599199955D-02
  0.877300000D+02 -0.245439982D-01
  0.285600000D+02 -0.674589950D-01
  0.102100000D+02 -0.158077988D+00
  0.383800000D+01 -0.121830991D+00
  0.746600000D+00  0.549002959D+00
  0.224800000D+00  0.578814957D+00
   s   1
  0.224800000D+00  0.100000000D+01
   p   4
  0.135500000D+02  0.399190123D-01
  0.291700000D+01  0.217169067D+00
  0.797300000D+00  0.510319158D+00
  0.218500000D+00  0.462214143D+00
   p   1
  0.218500000D+00  0.100000000D+01
   d   1
  0.817000000D+00  0.100000000D+01
 
   2
   s   9
  0.904600000D+04  0.700000035D-03
  0.135700000D+04  0.538900027D-02
  0.309300000D+03  0.274060014D-01
  0.877300000D+02  0.103207005D+00
  0.285600000D+02  0.278723014D+00
  0.102100000D+02  0.448540022D+00
  0.383800000D+01  0.278238014D+00
  0.746600000D+00  0.154400008D-01
  0.224800000D+00 -0.286400014D-02
   s   9
  0.904600000D+04 -0.152999989D-03
  0.135700000D+04 -0.120799991D-02
  0.309300000D+03 -0.599199955D-02
  0.877300000D+02 -0.245439982D-01
  0.285600000D+02 -0.674589950D-01
  0.102100000D+02 -0.158077988D+00
  0.383800000D+01 -0.121830991D+00
  0.746600000D+00  0.549002959D+00
  0.224800000D+00  0.578814957D+00
   s   1
  0.224800000D+00  0.100000000D+01
   p   4
  0.135500000D+02  0.399190123D-01
  0.291700000D+01  0.217169067D+00
  0.797300000D+00  0.510319158D+00
  0.218500000D+00  0.462214143D+00
   p   1
  0.218500000D+00  0.100000000D+01
   d   1
  0.817000000D+00  0.100000000D+01
 
[MO]
Sym=     1a  
Ene=   -15.6650
Spin= Alpha
Occup=    2.00000
   1         0.70702290
   2         0.00131750
   3        -0.00045969
   4        -0.00000000
   5         0.00000000
   6        -0.00234310
   7         0.00000000
   8        -0.00000000
   9         0.00186098
  10         0.00033201
  11         0.00000000
  12        -0.00000000
  13        -0.00000000
  14         0.00000000
  15         0.70702290
  16         0.00131750
  17        -0.00045969
  18        -0.00000000
  19         0.00000000
  20         0.00234310
  21         0.00000000
  22        -0.00000000
  23        -0.00186098
  24         0.00033201
  25        -0.00000000
  26         0.00000000
  27        -0.00000000
  28         0.00000000
Sym=     2a  
Ene=   -15.6620
Spin= Alpha
Occup=    2.00000
   1        -0.70811811
   2        -0.00412551
   3         0.00456682
   4         0.00000000
   5        -0.00000000
   6         0.00419609
   7        -0.00000000
   8         0.00000000
   9        -0.00317194
  10        -0.00136774
  11        -0.00000000
  12         0.00000000
  13         0.00000000
  14        -0.00000000
  15         0.70811811
  16         0.00412551
  17        -0.00456682
  18         0.00000000
  19        -0.00000000
  20         0.00419609
  21        -0.00000000
  22         0.00000000
  23        -0.00317194
  24         0.00136774
  25         0.00000000
  26        -0.00000000
  27        -0.00000000
  28         0.00000000
Sym=     3a  
Ene=    -1.4751
Spin= Alpha
Occup=    2.00000
   1        -0.00780257
   2         0.66622034
   3        -0.19703594
   4        -0.00000000
   5         0.00000000
   6        -0.33230870
   7         0.00000000
   8        -0.00000000
   9         0.11687903
  10         0.03121101
  11         0.00000000
  12        -0.00000000
  13        -0.00000000
  14         0.00000000
  15        -0.00780257
  16         0.66622034
  17        -0.19703594
  18        -0.00000000
  19         0.00000000
  20         0.33230870
  21         0.00000000
  22        -0.00000000
  23        -0.11687903
  24         0.03121101
  25        -0.00000000
  26         0.00000000
  27        -0.00000000
  28         0.00000000
Sym=     4a  
Ene=    -0.7704
Spin= Alpha
Occup=    2.00000
   1        -0.00118896
   2        -0.64902635
   3        -0.07688265
   4        -0.00000000
   5         0.00000000
   6        -0.30492417
   7         0.00000000
   8        -0.00000000
   9         0.04050740
  10         0.01763707
  11         0.00000000
  12        -0.00000000
  13         0.00000000
  14         0.00000000
  15         0.00118896
  16         0.64902635
  17         0.07688265
  18        -0.00000000
  19         0.00000000
  20        -0.30492417
  21         0.00000000
  22        -0.00000000
  23         0.04050740
  24        -0.01763707
  25        -0.00000000
  26         0.00000000
  27        -0.00000000
  28        -0.00000000
Sym=     5a  
Ene=    -0.6155
Spin= Alpha
Occup=    2.00000
   1         0.01348443
   2        -0.19087783
   3        -0.22811421
   4        -0.00000000
   5         0.00000000
   6        -0.66240033
   7         0.00000000
   8        -0.00000000
   9         0.09304555
  10         0.02954245
  11         0.00000000
  12        -0.00000000
  13        -0.00000000
  14         0.00000000
  15         0.01348443
  16        -0.19087783
  17        -0.22811421
  18        -0.00000000
  19         0.00000000
  20         0.66240033
  21         0.00000000
  22        -0.00000000
  23        -0.09304555
  24         0.02954245
  25        -0.00000000
  26         0.00000000
  27        -0.00000000
  28         0.00000000
Sym=     6a  
Ene=     0.0000
Spin= Alpha
Occup=    1.60036
   1         0.00000000
   2        -0.00000000
   3        -0.00000000
   4         0.61782971
   5         0.17733045
   6        -0.00000000
   7        -0.04616637
   8        -0.01325074
   9         0.00000000
  10         0.00000000
  11        -0.04502885
  12        -0.01292425
  13        -0.00000000
  14         0.00000000
  15         0.00000000
  16        -0.00000000
  17        -0.00000000
  18         0.61782971
  19         0.17733045
  20         0.00000000
  21        -0.04616637
  22        -0.01325074
  23        -0.00000000
  24         0.00000000
  25         0.04502885
  26         0.01292425
  27        -0.00000000
  28         0.00000000
Sym=     7a  
Ene=     0.0000
Spin= Alpha
Occup=    1.60036
   1        -0.00000000
   2         0.00000000
   3         0.00000000
   4        -0.17733045
   5         0.61782971
   6         0.00000000
   7         0.01325074
   8        -0.04616637
   9        -0.00000000
  10        -0.00000000
  11         0.01292425
  12        -0.04502885
  13         0.00000000
  14        -0.00000000
  15        -0.00000000
  16         0.00000000
  17         0.00000000
  18        -0.17733045
  19         0.61782971
  20        -0.00000000
  21         0.01325074
  22        -0.04616637
  23         0.00000000
  24        -0.00000000
  25        -0.01292425
  26         0.04502885
  27         0.00000000
  28         0.00000000
Sym=     8a  
Ene=     0.0000
Spin= Alpha
Occup=    0.39964
   1        -0.00000000
   2        -0.00000000
   3         0.00000000
   4         0.18624944
   5        -0.75660721
   6         0.00000000
   7         0.03660848
   8        -0.14871583
   9        -0.00000000
  10        -0.00000000
  11         0.00256044
  12        -0.01040134
  13         0.00000000
  14         0.00000000
  15         0.00000000
  16         0.00000000
  17        -0.00000000
  18        -0.18624944
  19         0.75660721
  20        -0.00000000
  21        -0.03660848
  22         0.14871583
  23        -0.00000000
  24         0.00000000
  25         0.00256044
  26        -0.01040134
  27        -0.00000000
  28         0.00000000
Sym=     9a  
Ene=     0.0000
Spin= Alpha
Occup=    0.39964
   1        -0.00000000
   2        -0.00000000
   3        -0.00000000
   4         0.75660721
   5         0.18624944
   6         0.00000000
   7         0.14871583
   8         0.03660848
   9         0.00000000
  10        -0.00000000
  11         0.01040134
  12         0.00256044
  13        -0.00000000
  14         0.00000000
  15        -0.00000000
  16        -0.00000000
  17         0.00000000
  18        -0.75660721
  19        -0.18624944
  20         0.00000000
  21        -0.14871583
  22        -0.03660848
  23         0.00000000
  24         0.00000000
  25         0.01040134
  26         0.00256044
  27         0.00000000
  28        -0.00000000
Sym=    10a  
Ene=     0.5969
Spin= Alpha
Occup=    0.00000
   1         0.03173849
   2        -0.33180288
   3        -3.71987076
   4         0.00000000
   5        -0.00000000
   6         0.11523403
   7        -0.00000000
   8         0.00000000
   9         2.56259750
  10        -0.05059802
  11         0.00000000
  12        -0.00000000
  13         0.00000000
  14         0.00000000
  15        -0.03173849
  16         0.33180288
  17         3.71987076
  18         0.00000000
  19         0.00000000
  20         0.11523403
  21        -0.00000000
  22        -0.00000000
  23         2.56259750
  24         0.05059802
  25        -0.00000000
  26        -0.00000000
  27        -0.00000000
  28         0.00000000
Sym=    11a  
Ene=     0.8185
Spin= Alpha
Occup=    0.00000
   1         0.17981869
   2         0.70765900
   3        -0.46067092
   4        -0.00000000
   5         0.00000000
   6        -0.65399506
   7         0.00000000
   8        -0.00000000
   9         1.23705095
  10         0.07480732
  11         0.00000000
  12        -0.00000000
  13         0.00000000
  14        -0.00000000
  15         0.17981869
  16         0.70765900
  17        -0.46067092
  18        -0.00000000
  19         0.00000000
  20         0.65399506
  21         0.00000000
  22        -0.00000000
  23        -1.23705095
  24         0.07480732
  25        -0.00000000
  26         0.00000000
  27         0.00000000
  28         0.00000000
Sym=    12a  
Ene=     0.8703
Spin= Alpha
Occup=    0.00000
   1         0.00000000
   2         0.00000000
   3        -0.00000000
   4        -0.94001867
   5         0.03567693
   6         0.00000000
   7         1.05736411
   8        -0.04013059
   9        -0.00000000
  10         0.00000000
  11         0.10243505
  12        -0.00388776
  13        -0.00000000
  14        -0.00000000
  15        -0.00000000
  16        -0.00000000
  17        -0.00000000
  18        -0.94001867
  19         0.03567693
  20        -0.00000000
  21         1.05736411
  22        -0.04013059
  23         0.00000000
  24        -0.00000000
  25        -0.10243505
  26         0.00388776
  27        -0.00000000
  28        -0.00000000
Sym=    13a  
Ene=     0.8703
Spin= Alpha
Occup=    0.00000
   1        -0.00000000
   2        -0.00000000
   3         0.00000000
   4        -0.03567693
   5        -0.94001867
   6        -0.00000000
   7         0.04013059
   8         1.05736411
   9         0.00000000
  10         0.00000000
  11         0.00388776
  12         0.10243505
  13         0.00000000
  14        -0.00000000
  15        -0.00000000
  16        -0.00000000
  17         0.00000000
  18        -0.03567693
  19        -0.94001867
  20         0.00000000
  21         0.04013059
  22         1.05736411
  23        -0.00000000
  24        -0.00000000
  25        -0.00388776
  26        -0.10243505
  27         0.00000000
  28        -0.00000000
Sym=    14a  
Ene=     0.9999
Spin= Alpha
Occup=    0.00000
   1         0.41915903
   2         2.04116565
   3        -2.11155587
   4         0.00000000
   5        -0.00000000
   6         0.43517426
   7        -0.00000000
   8         0.00000000
   9        -0.42898237
  10         0.05677794
  11        -0.00000000
  12         0.00000000
  13         0.00000000
  14         0.00000000
  15         0.41915903
  16         2.04116565
  17        -2.11155587
  18         0.00000000
  19        -0.00000000
  20        -0.43517426
  21        -0.00000000
  22         0.00000000
  23         0.42898237
  24         0.05677794
  25         0.00000000
  26        -0.00000000
  27         0.00000000
  28        -0.00000000
Sym=    15a  
Ene=     1.0313
Spin= Alpha
Occup=    0.00000
   1        -0.00000000
   2        -0.00000000
   3         0.00000000
   4         0.98354443
   5         0.01459067
   6        -0.00000000
   7        -1.69170093
   8        -0.02509602
   9        -0.00000000
  10        -0.00000000
  11         0.06259299
  12         0.00092855
  13        -0.00000000
  14        -0.00000000
  15         0.00000000
  16         0.00000000
  17        -0.00000000
  18        -0.98354443
  19        -0.01459067
  20        -0.00000000
  21         1.69170093
  22         0.02509602
  23        -0.00000000
  24         0.00000000
  25         0.06259299
  26         0.00092855
  27         0.00000000
  28         0.00000000
Sym=    16a  
Ene=     1.0313
Spin= Alpha
Occup=    0.00000
   1        -0.00000000
   2        -0.00000000
   3         0.00000000
   4         0.01459067
   5        -0.98354443
   6        -0.00000000
   7        -0.02509602
   8         1.69170093
   9         0.00000000
  10        -0.00000000
  11         0.00092855
  12        -0.06259299
  13        -0.00000000
  14         0.00000000
  15         0.00000000
  16         0.00000000
  17        -0.00000000
  18        -0.01459067
  19         0.98354443
  20        -0.00000000
  21         0.02509602
  22        -1.69170093
  23         0.00000000
  24         0.00000000
  25         0.00092855
  26        -0.06259299
  27        -0.00000000
  28        -0.00000000
Sym=    17a  
Ene=     1.1466
Spin= Alpha
Occup=    0.00000
   1         0.13583947
   2         0.42568893
   3        -0.73601781
   4         0.00000000
   5        -0.00000000
   6         1.12423499
   7        -0.00000000
   8         0.00000000
   9        -0.79033808
  10         0.22977607
  11         0.00000000
  12         0.00000000
  13         0.00000000
  14         0.00000000
  15        -0.13583947
  16        -0.42568893
  17         0.73601781
  18        -0.00000000
  19         0.00000000
  20         1.12423499
  21         0.00000000
  22        -0.00000000
  23        -0.79033808
  24        -0.22977607
  25        -0.00000000
  26         0.00000000
  27        -0.00000000
  28         0.00000000
Sym=    18a  
Ene=     1.6355
Spin= Alpha
Occup=    0.00000
   1         0.64947663
   2         2.87621871
   3        -7.72781646
   4         0.00000000
   5        -0.00000000
   6        -0.18354048
   7        -0.00000000
   8        -0.00000000
   9         2.80754940
  10        -0.20756418
  11        -0.00000000
  12        -0.00000000
  13         0.00000000
  14        -0.00000000
  15        -0.64947663
  16        -2.87621871
  17         7.72781646
  18         0.00000000
  19         0.00000000
  20        -0.18354048
  21         0.00000000
  22         0.00000000
  23         2.80754940
  24         0.20756418
  25        -0.00000000
  26        -0.00000000
  27        -0.00000000
  28        -0.00000000
Sym=    19a  
Ene=     1.7573
Spin= Alpha
Occup=    0.00000
   1         0.00000000
   2         0.00000000
   3        -0.00000000
   4        -0.00000000
   5        -0.00000000
   6        -0.00000000
   7         0.00000000
   8         0.00000000
   9         0.00000000
  10        -0.00000000
  11        -0.00000000
  12        -0.00000000
  13        -0.00000000
  14         0.65339506
  15        -0.00000000
  16        -0.00000000
  17         0.00000000
  18        -0.00000000
  19        -0.00000000
  20        -0.00000000
  21         0.00000000
  22         0.00000000
  23         0.00000000
  24         0.00000000
  25         0.00000000
  26         0.00000000
  27        -0.00000000
  28         0.65339506
Sym=    20a  
Ene=     1.7573
Spin= Alpha
Occup=    0.00000
   1         0.00000000
   2         0.00000000
   3        -0.00000000
   4         0.00000000
   5        -0.00000000
   6        -0.00000000
   7        -0.00000000
   8         0.00000000
   9         0.00000000
  10        -0.00000000
  11         0.00000000
  12        -0.00000000
  13         0.65339506
  14         0.00000000
  15        -0.00000000
  16        -0.00000000
  17         0.00000000
  18         0.00000000
  19        -0.00000000
  20         0.00000000
  21        -0.00000000
  22         0.00000000
  23         0.00000000
  24        -0.00000000
  25        -0.00000000
  26         0.00000000
  27         0.65339506
  28         0.00000000
Sym=    21a  
Ene=     1.8718
Spin= Alpha
Occup=    0.00000
   1        -0.00000000
   2        -0.00000000
   3        -0.00000000
   4        -0.08819159
   5        -0.41370514
   6         0.00000000
   7         0.05516314
   8         0.25876928
   9         0.00000000
  10        -0.00000000
  11        -0.12417013
  12        -0.58247985
  13        -0.00000000
  14        -0.00000000
  15         0.00000000
  16         0.00000000
  17         0.00000000
  18        -0.08819159
  19        -0.41370514
  20         0.00000000
  21         0.05516314
  22         0.25876928
  23         0.00000000
  24         0.00000000
  25         0.12417013
  26         0.58247985
  27        -0.00000000
  28        -0.00000000
Sym=    22a  
Ene=     1.8718
Spin= Alpha
Occup=    0.00000
   1         0.00000000
   2        -0.00000000
   3        -0.00000000
   4        -0.41370514
   5         0.08819159
   6         0.00000000
   7         0.25876928
   8        -0.05516314
   9         0.00000000
  10         0.00000000
  11        -0.58247985
  12         0.12417013
  13         0.00000000
  14        -0.00000000
  15        -0.00000000
  16        -0.00000000
  17         0.00000000
  18        -0.41370514
  19         0.08819159
  20         0.00000000
  21         0.25876928
  22        -0.05516314
  23         0.00000000
  24         0.00000000
  25         0.58247985
  26        -0.12417013
  27         0.00000000
  28        -0.00000000
Sym=    23a  
Ene=     2.2881
Spin= Alpha
Occup=    0.00000
   1        -0.00000000
   2        -0.00000000
   3         0.00000000
   4         0.00000000
   5        -0.00000000
   6         0.00000000
   7         0.00000000
   8         0.00000000
   9        -0.00000000
  10         0.00000000
  11        -0.00000000
  12        -0.00000000
  13         0.00000000
  14        -0.77669609
  15        -0.00000000
  16        -0.00000000
  17         0.00000000
  18        -0.00000000
  19         0.00000000
  20        -0.00000000
  21        -0.00000000
  22        -0.00000000
  23         0.00000000
  24         0.00000000
  25         0.00000000
  26         0.00000000
  27         0.00000000
  28         0.77669609
Sym=    24a  
Ene=     2.2881
Spin= Alpha
Occup=    0.00000
   1         0.00000000
   2         0.00000000
   3        -0.00000000
   4        -0.00000000
   5        -0.00000000
   6        -0.00000000
   7         0.00000000
   8         0.00000000
   9         0.00000000
  10         0.00000000
  11         0.00000000
  12        -0.00000000
  13        -0.77669609
  14        -0.00000000
  15        -0.00000000
  16        -0.00000000
  17         0.00000000
  18         0.00000000
  19        -0.00000000
  20        -0.00000000
  21        -0.00000000
  22        -0.00000000
  23         0.00000000
  24        -0.00000000
  25         0.00000000
  26        -0.00000000
  27         0.77669609
  28        -0.00000000
Sym=    25a  
Ene=     2.8697
Spin= Alpha
Occup=    0.00000
   1        -0.38354593
   2        -1.44100667
   3         1.15929290
   4        -0.00000000
   5        -0.00000000
   6         0.54663944
   7         0.00000000
   8        -0.00000000
   9        -0.80024533
  10         0.83334588
  11         0.00000000
  12         0.00000000
  13         0.00000000
  14         0.00000000
  15        -0.38354593
  16        -1.44100667
  17         1.15929290
  18         0.00000000
  19        -0.00000000
  20        -0.54663944
  21         0.00000000
  22         0.00000000
  23         0.80024533
  24         0.83334588
  25        -0.00000000
  26        -0.00000000
  27         0.00000000
  28        -0.00000000
Sym=    26a  
Ene=     2.9940
Spin= Alpha
Occup=    0.00000
   1        -0.00000000
   2        -0.00000000
   3        -0.00000000
   4         0.01236180
   5         0.34337519
   6         0.00000000
   7         0.01083838
   8         0.30105903
   9        -0.00000000
  10        -0.00000000
  11        -0.03963030
  12        -1.10081566
  13         0.00000000
  14         0.00000000
  15         0.00000000
  16         0.00000000
  17         0.00000000
  18        -0.01236180
  19        -0.34337519
  20         0.00000000
  21        -0.01083838
  22        -0.30105903
  23        -0.00000000
  24         0.00000000
  25        -0.03963030
  26        -1.10081566
  27        -0.00000000
  28        -0.00000000
Sym=    27a  
Ene=     2.9940
Spin= Alpha
Occup=    0.00000
   1         0.00000000
   2         0.00000000
   3         0.00000000
   4        -0.34337519
   5         0.01236180
   6        -0.00000000
   7        -0.30105903
   8         0.01083838
   9        -0.00000000
  10         0.00000000
  11         1.10081566
  12        -0.03963030
  13         0.00000000
  14         0.00000000
  15        -0.00000000
  16        -0.00000000
  17        -0.00000000
  18         0.34337519
  19        -0.01236180
  20        -0.00000000
  21         0.30105903
  22        -0.01083838
  23        -0.00000000
  24        -0.00000000
  25         1.10081566
  26        -0.03963030
  27        -0.00000000
  28         0.00000000
Sym=    28a  
Ene=     3.2817
Spin= Alpha
Occup=    0.00000
   1        -0.17253564
   2        -0.93111153
   3        -2.69930969
   4        -0.00000000
   5        -0.00000000
   6         1.56918539
   7         0.00000000
   8        -0.00000000
   9         0.91739072
  10        -1.20137444
  11         0.00000000
  12         0.00000000
  13        -0.00000000
  14        -0.00000000
  15         0.17253564
  16         0.93111153
  17         2.69930969
  18         0.00000000
  19         0.00000000
  20         1.56918539
  21         0.00000000
  22         0.00000000
  23         0.91739072
  24         1.20137444
  25         0.00000000
  26         0.00000000
  27         0.00000000
  28        -0.00000000
