[Molden Format]
made by pyscf v[1.7.6]
[Atoms] (AU)
N   1   7     0.00000000000000     0.00000000000000     1.03699996650642
N   2   7     0.00000000000000     0.00000000000000    -1.03699996650642
Ghost   3   0     0.00000000000000     0.00000000000000     0.00000000000000
[GTO]
1 0
 s    6 1.00
               4150.11  0.0018454099110651
               620.084     0.0141644993205
               141.688   0.068632496712421
               40.3367    0.22857398900806
               13.0267    0.46616197761644
               4.47003     0.3656719825129
 s    2 1.00
               5.42522   -0.41330007733644
               1.14915     1.2244172668117
 s    1 1.00
              0.283205                   1
 p    2 1.00
               5.42522    0.23797201619212
               1.14915    0.85895305857156
 p    1 1.00
              0.283205                   1

2 0
 s    6 1.00
               4150.11  0.0018454099110651
               620.084     0.0141644993205
               141.688   0.068632496712421
               40.3367    0.22857398900806
               13.0267    0.46616197761644
               4.47003     0.3656719825129
 s    2 1.00
               5.42522   -0.41330007733644
               1.14915     1.2244172668117
 s    1 1.00
              0.283205                   1
 p    2 1.00
               5.42522    0.23797201619212
               1.14915    0.85895305857156
 p    1 1.00
              0.283205                   1

3 0
 s    6 1.00
               4150.11  0.0018454099110651
               620.084     0.0141644993205
               141.688   0.068632496712421
               40.3367    0.22857398900806
               13.0267    0.46616197761644
               4.47003     0.3656719825129
 p    1 1.00
               5.42522                   1
 d    1 1.00
                 0.187                   1
 f    1 1.00
                0.3492                   1
 g    1 1.00
                 8.345                   1

[6d]
[10f]
[15g]

[MO]
 Sym= A
 Ene=     -15.6973201
 Spin= Alpha
 Occup=    2.00000
   1      0.70349477058432
   2     0.015188091040739
   3    -0.00013799506998337
   4    2.9175471935868e-17
   5     5.12885107377e-17
   6    -0.0019389482059053
   7    -1.7503169103035e-18
   8    6.5768281378217e-18
   9    0.0018936122945701
  10      0.70349477064786
  11     0.015188091042123
  12    -0.00013799507046546
  13    -3.4995630827437e-18
  14    -8.4486868730821e-18
  15    0.0019389482060792
  16    7.4612581909121e-18
  17    6.6884648626391e-18
  18    -0.0018936122944406
  19    0.00037763364890958
  20    3.8508608122772e-19
  21    -9.3169292534031e-21
  22    -3.9114876353979e-15
  23    0.00069852053268545
  24    0.00069852053268542
  25    -0.0018750670156348
  26    1.320186980556e-19
  27    -1.6533627805507e-18
  28    -2.52675160346e-18
  29    -3.1829873667831e-18
  30    -8.9770884021224e-18
  31    -2.3545154556951e-13
  32    -3.9846353801025e-18
  33    -3.9144120406106e-18
  34    -2.8057218025659e-14
  35    -1.440538623621e-18
  36    -2.7458627145647e-18
  37    -2.80475037354e-14
  38    1.034481188775e-18
  39    0.00028603195203695
  40    0.00028603195203695
  41    0.00029792654205797
  42    -3.9721564330476e-20
  43    -2.1714222585097e-19
  44    -4.486631487321e-20
  45    -3.5062457448662e-20
  46    4.2057776256699e-19
  47    -1.7685895589128e-19
  48    0.00016748316171506
  49    -0.00035782319458384
  50    -0.00035782319458384
  51    -2.9559034520811e-20
  52    -1.4782477613775e-19
  53    -3.6432484102261e-22
 Sym= A
 Ene=    -15.69388754
 Spin= Alpha
 Occup=    2.00000
   1      0.70411402179735
   2     0.015915103961166
   3    -0.0082678632783639
   4    6.5315091931617e-17
   5    -5.9163481334057e-17
   6    -0.0018959339181388
   7    -1.6622898284642e-16
   8    1.8032446824565e-18
   9    -0.0002339782875382
  10     -0.70411402173386
  11    -0.015915103959799
  12    0.0082678632783546
  13    3.7563462117833e-18
  14    6.6389220614809e-18
  15    -0.0018959339179658
  16    1.3809154535206e-18
  17    -1.2775535699135e-17
  18    -0.00023397828770544
  19    1.6884725598859e-14
  20    -1.1778789387189e-19
  21    5.7202042955078e-20
  22    5.9813978071955e-05
  23    3.0210184669794e-14
  24    3.0237243606484e-14
  25    -8.3567211902165e-14
  26    7.9652398501571e-19
  27    1.7270942004813e-17
  28    -7.6405633370431e-18
  29    1.4145200909004e-17
  30    8.5178360767621e-19
  31    0.0053295141850348
  32    9.2197366758019e-18
  33    1.0027030675718e-18
  34    0.0010842514536763
  35    4.1392350903244e-18
  36    -1.7065703565455e-19
  37    0.0010842514536763
  38    -5.5005519657765e-20
  39    1.3102195239235e-14
  40    1.3103515952249e-14
  41    1.4071190974934e-14
  42    9.9273099955563e-20
  43    -1.3309681264104e-19
  44    1.0750425613481e-19
  45    3.2486417854241e-19
  46    1.9346513937529e-19
  47    -2.1280853327267e-19
  48    7.6718260025476e-15
  49    -1.5974364758895e-14
  50    -1.5975893208356e-14
  51    1.5248910891268e-19
  52    -2.439272898739e-21
  53    8.6942936524372e-20
 Sym= A
 Ene=    -1.469702072
 Spin= Alpha
 Occup=    2.00000
   1     -0.17285856211463
   2      0.19322559788972
   3      0.34224464285668
   4    -5.7389387832073e-16
   5    -6.9523090510278e-16
   6     -0.19391530318886
   7    -8.1979639184718e-16
   8    -9.0888306548168e-16
   9    -0.084196901587144
  10     -0.17285856211462
  11      0.19322559788984
  12      0.34224464285625
  13    -3.0366398344845e-16
  14    -2.2098784189385e-16
  15      0.19391530318887
  16    -3.0041424220517e-16
  17    -4.1307680943386e-16
  18     0.084196901586983
  19    0.0066136907830853
  20    1.3934298119038e-17
  21    1.1163356229575e-17
  22    2.6910218652938e-15
  23    -0.035824382232215
  24    -0.035824382232213
  25     0.013980488224722
  26    2.2829282987793e-17
  27    4.9668589148696e-17
  28    6.9294564813885e-17
  29    4.4192475226042e-17
  30    2.5358751223966e-16
  31    -3.8593410084527e-14
  32    2.7867396224116e-17
  33    1.236015526975e-16
  34    -3.8903107353959e-14
  35    1.0676895113937e-16
  36    2.8751864257729e-16
  37    -3.9553305717101e-14
  38    1.9261669296606e-17
  39    0.0050309603568118
  40    0.0050309603568117
  41    0.0048480570458874
  42    2.5569377099393e-19
  43    6.3188267743918e-18
  44    2.4035424252871e-19
  45    8.4480063404228e-18
  46    8.0617065242407e-18
  47    1.0092054610315e-17
  48    0.0029458287475283
  49    0.0034158856858473
  50    0.0034158856858473
  51    3.8245629742661e-18
  52    2.8225939053787e-18
  53    1.6092607553606e-19
 Sym= A
 Ene=   -0.7644004349
 Spin= Alpha
 Occup=    2.00000
   1      0.16794738025489
   2     -0.15720250607886
   3      -0.7484104602065
   4    -4.946496227271e-15
   5    -2.1558787535454e-15
   6     -0.17508663987671
   7    -6.4773786367526e-15
   8    -2.4779893441316e-15
   9     -0.15408320763201
  10     -0.16794738025493
  11       0.1572025060789
  12      0.74841046020665
  13    -2.8215150307172e-15
  14    -1.0409175264651e-15
  15     -0.17508663987708
  16    -3.7770636981113e-15
  17    -1.5692874476358e-15
  18     -0.15408320763212
  19    -1.2370133122592e-15
  20    -3.9184864369218e-17
  21    1.4884225403426e-17
  22    0.0059552832120003
  23    7.1824127496069e-15
  24    1.0544016316496e-14
  25    1.0524690218841e-13
  26    -4.1318282660922e-17
  27    5.0870823450842e-16
  28    3.8794480213268e-17
  29    1.2945183796763e-15
  30    5.4144235287996e-16
  31      0.11145053963956
  32    5.7119722268129e-16
  33    2.2701057974793e-16
  34     0.034835734952348
  35    1.7526664996299e-15
  36    8.047722288147e-16
  37     0.034835734952347
  38    -2.4816364649889e-18
  39    1.6228032142205e-16
  40    1.6855789554599e-16
  41    1.9934560338585e-16
  42    -4.4856199507007e-19
  43    1.2185723504828e-17
  44    -4.6879831618431e-19
  45    2.2170013397975e-17
  46    1.5808948530079e-17
  47    2.5502407419171e-17
  48    7.2808085930821e-17
  49    -1.8786550883301e-15
  50    -1.9395636148107e-15
  51    1.0031349916792e-17
  52    5.5242169362239e-18
  53    -4.2097992170659e-19
 Sym= A
 Ene=   -0.6092312028
 Spin= Alpha
 Occup=    2.00000
   1    -0.058562907272519
   2      0.05510449035429
   3      0.29483259012433
   4    -1.4978752287501e-14
   5    -5.5691339983291e-15
   6      0.39148330663148
   7    -1.957186423278e-14
   8    -5.638487462964e-15
   9      0.24607759602472
  10     -0.05856290727238
  11     0.055104490354143
  12       0.2948325901236
  13    -1.03837171178e-14
  14    -3.5935062481273e-15
  15     -0.39148330663137
  16    -1.4164774439357e-14
  17    -3.596953926233e-15
  18     -0.24607759602492
  19    -0.0043881802393521
  20    -4.4952892168963e-16
  21    -3.1715334646445e-16
  22    -2.9252693236381e-15
  23     0.055602000394292
  24     0.055602000394293
  25     0.092055700742663
  26    2.6986329213026e-17
  27    1.7496926068501e-15
  28    1.1245684147868e-15
  29    4.3074416195489e-15
  30    1.4260312074821e-15
  31    1.0545734343178e-13
  32    1.9153383465693e-15
  33    6.3958759674557e-16
  34    1.9968122315019e-15
  35    6.0384200434715e-15
  36    1.6805508799606e-15
  37    1.6631111020958e-15
  38    2.7559974759803e-18
  39    -0.00059964042375021
  40    -0.00059964042375017
  41    -0.003226123474362
  42    -6.0288382476813e-19
  43    -3.7892047675506e-17
  44    -6.3514681951512e-19
  45    -6.2706816334079e-17
  46    -3.9212525770659e-17
  47    -6.8674495063516e-17
  48    -0.00035111347996828
  49     -0.00540678246872
  50     -0.00540678246872
  51    -2.8047489157383e-17
  52    -1.6879352538464e-17
  53    -3.9837312474805e-19
 Sym= A
 Ene=   -0.6024072695
 Spin= Alpha
 Occup=    2.00000
   1    3.7993433337212e-17
   2    -7.677930592303e-16
   3    -1.403735892194e-16
   4      0.33653585215108
   5     0.085178855524691
   6    1.3731277749236e-14
   7      0.45109933029148
   8       0.1141754271843
   9    3.8050066824127e-15
  10    -4.9770242652184e-15
  11    2.6682568976595e-15
  12    2.5285175140372e-14
  13      0.33653585215115
  14     0.085178855524705
  15    -1.3013266645441e-14
  16      0.45109933029145
  17      0.11417542718429
  18    -1.4476534397349e-14
  19    -1.6746901514319e-16
  20    0.0069028213150141
  21    0.0017471375360042
  22    4.2646007780217e-17
  23    1.4538968711282e-15
  24    -4.3693125270986e-16
  25    4.6015460134346e-15
  26    6.3118639163351e-15
  27    -3.2586332040757e-14
  28    -8.9469201416487e-15
  29    -0.079281234403637
  30     -0.02006646474045
  31    6.3150121164886e-15
  32    -0.035455645893322
  33    -0.008973995845549
  34    2.4452204210348e-15
  35     -0.14787747808218
  36    -0.037428506533274
  37    2.1252322664701e-15
  38    5.6467185979237e-16
  39    -3.1243254918562e-18
  40    1.2235276844371e-17
  41    -1.4868979874611e-16
  42    5.1738844528302e-17
  43    5.4905801196258e-17
  44    2.2942292488054e-16
  45    -7.4738234716436e-17
  46    2.2175627763816e-16
  47    8.5603673057928e-17
  48    4.1830324347879e-17
  49    -1.9628547474566e-16
  50    -1.9539944059531e-16
  51    5.4082160546376e-17
  52     2.78577578862e-17
  53    1.0319219153043e-16
 Sym= A
 Ene=   -0.6024072695
 Spin= Alpha
 Occup=    2.00000
   1    -4.2620872828453e-17
   2    2.9708787216758e-16
   3    -1.389830487073e-15
   4    -0.085178855524689
   5      0.33653585215108
   6    4.7044379515832e-16
   7      -0.1141754271843
   8      0.45109933029148
   9    -4.7443810734393e-15
  10    -3.3566337060359e-16
  11    7.8132197743503e-16
  12    -2.4162741185832e-15
  13    -0.085178855524708
  14      0.33653585215114
  15    1.4675069100313e-16
  16     -0.11417542718429
  17      0.45109933029146
  18    -1.1876590823829e-15
  19    4.4018331733932e-17
  20    -0.0017471375360042
  21    0.0069028213150138
  22    -5.2772215762334e-17
  23    -2.0841947505372e-15
  24    4.8178391312477e-16
  25    5.9299057906752e-15
  26    -1.5291191520715e-15
  27    9.9441653890296e-15
  28    -3.1350453310862e-14
  29     0.020066464740446
  30    -0.079281234403646
  31    2.8111297751058e-15
  32    0.0089739958455476
  33    -0.035455645893327
  34    -1.6068689725182e-16
  35     0.037428506533271
  36     -0.14787747808218
  37    -1.2386880322162e-15
  38    4.4899492075593e-16
  39    1.2777845093139e-17
  40    -1.9236389664716e-16
  41    -7.6316123667625e-18
  42    7.6247707930856e-17
  43    -1.5413511026501e-18
  44    5.5597140387284e-17
  45    3.1713847114901e-17
  46    -6.8137867264374e-17
  47    1.3431132581512e-16
  48    1.3989175028912e-16
  49    3.3564064352336e-18
  50    6.6787433896465e-17
  51    1.1144623413155e-16
  52    4.1769947454667e-17
  53    3.7681601865028e-17
 Sym= A
 Ene=    0.1836244928
 Spin= Alpha
 Occup=    0.00000
   1    1.2960297493612e-16
   2    -3.2889334447957e-16
   3    2.8708095944794e-15
   4      0.35077537832551
   5     0.093880392932169
   6    1.2308270173116e-15
   7      0.16259342593823
   8       0.0435159810478
   9    -3.3384715829911e-15
  10    -2.5081345415261e-16
  11    4.7285047645604e-16
  12    -4.3994353705611e-16
  13     -0.35077537832551
  14    -0.093880392932169
  15    -1.2874716264518e-15
  16     -0.16259342593814
  17     -0.04351598104779
  18    -5.8810018787199e-15
  19    -3.9434859706856e-17
  20    9.5320910504244e-16
  21    5.0733868306853e-16
  22    5.8418192192312e-17
  23    2.6110594144252e-16
  24    4.5247183713406e-15
  25    -1.7319463972274e-15
  26    5.2292101516307e-15
  27      0.52547270326975
  28       0.1406358225415
  29    7.1835778290748e-15
  30    1.0728430206454e-14
  31    3.9160979324874e-15
  32    5.0266397341678e-15
  33    5.7943294801258e-15
  34    -1.7124563580939e-15
  35    -4.2275926836601e-14
  36    -9.6907429512258e-15
  37    -2.3713750019136e-16
  38    -1.3429144199487e-15
  39    -4.7397424159121e-17
  40    -7.0218366457846e-17
  41    1.6238761544298e-17
  42    2.4788849679505e-17
  43    -0.00029236383892117
  44    -5.0438717220558e-17
  45    -7.8247316582366e-05
  46    -0.0010623777152954
  47    -0.00028433135139195
  48    1.1292133834293e-16
  49    -5.9198982371988e-17
  50    -9.1849333250014e-17
  51    -3.4993263786944e-05
  52    -0.000130749083598
  53    -2.0372062353554e-18
 Sym= A
 Ene=    0.1836244928
 Spin= Alpha
 Occup=    0.00000
   1    2.5176841571237e-17
   2    5.5570548972829e-16
   3    -6.622967411021e-15
   4    -0.093880392932171
   5      0.35077537832551
   6    2.0607218144922e-17
   7    -0.043515981047861
   8      0.16259342593815
   9    -2.0693235604886e-15
  10    5.3481986797234e-17
  11    2.4018219995407e-16
  12    -6.2622389434132e-15
  13     0.093880392932171
  14     -0.35077537832551
  15    1.2868399152813e-15
  16     0.043515981047834
  17     -0.16259342593806
  18    9.5767670733946e-15
  19     3.91301985282e-17
  20    -3.534074414453e-16
  21    1.1571898539345e-15
  22    -2.0380899772034e-17
  23    -3.7506451210854e-15
  24    3.8149266158661e-16
  25    1.3619581630818e-14
  26    -3.5716793618865e-15
  27     -0.14063582254144
  28      0.52547270326983
  29    3.3405926541978e-16
  30    2.8917323165885e-15
  31    -6.415263178402e-15
  32    7.0936434352871e-16
  33    -9.2962048983426e-18
  34    5.7358549112511e-16
  35    1.2261612001243e-14
  36    -4.0970368025878e-14
  37    1.2845813507413e-17
  38    1.0670687547268e-15
  39    -2.177487724286e-17
  40    -1.1822174150088e-16
  41    5.6966598302732e-18
  42    -5.5363333303921e-17
  43    7.8247316582145e-05
  44    -7.9173131415004e-17
  45    -0.00029236383892093
  46    0.00028433135139202
  47    -0.0010623777152955
  48    1.6321525179862e-16
  49    -3.6637643698111e-17
  50    9.4284969513778e-17
  51    -0.00013074908359805
  52    3.4993263786908e-05
  53    -2.922175180092e-17
 Sym= A
 Ene=    0.3573203583
 Spin= Alpha
 Occup=    0.00000
   1    -0.091005994718129
   2     0.027834323130904
   3      0.71354359173096
   4    -9.949934118839e-16
   5    3.0073441916232e-17
   6     0.066147598475341
   7    -4.1336139875674e-15
   8    -2.5127299652002e-16
   9      0.44416811763179
  10    -0.091005994718146
  11     0.027834323130882
  12      0.71354359173126
  13    -1.0580572652431e-15
  14    -4.3474382112223e-16
  15     -0.06614759847532
  16    2.4895107158382e-15
  17    -5.8443298888292e-16
  18     -0.44416811763169
  19    0.0038690301786543
  20    -6.5456905074456e-17
  21    -7.1572413719488e-17
  22    3.8252425630742e-16
  23     -0.63819090094312
  24      -0.6381909009431
  25     -0.78887376254257
  26    -1.5232393131541e-16
  27    6.6516335275585e-15
  28    2.0867388135962e-16
  29    1.4065716604635e-15
  30    1.4566709801155e-16
  31    2.1534553336025e-14
  32    6.7298610876927e-16
  33    6.8305635132859e-17
  34    4.4956936248066e-14
  35    8.0882479693601e-16
  36    1.6712436214883e-16
  37    4.309311383759e-14
  38    -1.4126362619547e-18
  39    0.0031770595813025
  40    0.0031770595813024
  41    0.0034792553655452
  42    -3.4138669763081e-19
  43    -1.630396432789e-17
  44    -3.1207136437382e-19
  45    -2.5643417601085e-17
  46    -2.0907384195956e-17
  47    -2.9734221822435e-17
  48    0.0018602956062931
  49    0.0017727325958035
  50    0.0017727325958035
  51    -1.1697897563065e-17
  52    -7.3779845718585e-18
  53    -2.4036006280726e-19
 Sym= A
 Ene=    0.5260085985
 Spin= Alpha
 Occup=    0.00000
   1    -1.8709564038823e-14
   2    -1.1420057723232e-14
   3    4.5829923524997e-13
   4    5.6529064606742e-15
   5    -8.4710844894424e-16
   6    -9.9124519861855e-15
   7    2.5384027044053e-14
   8    -4.0604029540672e-15
   9    -3.0901880037095e-13
  10    1.474387052248e-14
  11    1.9420820970821e-14
  12    -3.6546289965278e-13
  13    5.3941464154146e-15
  14    7.1723103389531e-17
  15    -1.4681557448962e-14
  16    -2.9365386759459e-15
  17    1.6583717428099e-14
  18    -3.9904780185728e-13
  19    -1.9479969637454e-19
  20    -5.2780750201238e-17
  21    -1.3938246947233e-16
  22    5.0460921233705e-17
  23      0.86598464912301
  24       -0.865984649123
  25    -9.1729038625432e-14
  26    0.0018596615992037
  27    -1.224211289647e-14
  28    1.4591108734555e-14
  29    -1.9703218706741e-14
  30    -1.3543492312623e-14
  31    1.2223689710859e-13
  32    -1.3660082748758e-14
  33    -2.9031091474645e-15
  34    -5.244468367854e-14
  35    -1.1553730492193e-14
  36    1.8641761516879e-15
  37    -1.1423840308854e-14
  38    3.3985010345523e-15
  39    0.00098966388953619
  40    -0.00098966388953599
  41    -2.1333064547695e-16
  42    1.3913072918152e-06
  43    5.355115658817e-17
  44    1.3913072916261e-06
  45    1.3574346914834e-16
  46    -4.6531266169787e-17
  47    -1.8400375046995e-17
  48    4.9215354017368e-17
  49    0.0007184595310685
  50    -0.0007184595310687
  51    -9.4321165626082e-17
  52    -1.1516736916816e-16
  53    1.5428582964928e-06
 Sym= A
 Ene=    0.5260085985
 Spin= Alpha
 Occup=    0.00000
   1    9.9593601508602e-18
   2    -2.7519058442685e-18
   3    1.254073129853e-16
   4    -4.4647034062194e-15
   5    -4.233883407199e-15
   6    6.4128746997401e-17
   7    -5.0113754374014e-14
   8    -1.3557271494672e-14
   9    1.1911472269697e-15
  10    -4.6180657352335e-17
  11    -7.8581065498475e-17
  12    1.4214463355704e-15
  13    7.9795119435909e-15
  14    -5.7596621118993e-16
  15    -6.8442774573404e-17
  16    2.5153648086832e-14
  17    1.309842616379e-14
  18    -1.2964607708603e-16
  19    -1.8740138573057e-18
  20    4.8271421346471e-17
  21    -1.1788437251978e-16
  22    -1.3681440518113e-18
  23    -0.0016105141873528
  24    0.0016105141873529
  25    -1.5099548833504e-15
  26       0.9999529405705
  27    3.8813646116425e-14
  28    1.8227975612754e-14
  29    1.1121480065724e-14
  30    1.7226948922081e-15
  31    -2.0678903979527e-16
  32    2.3248210897038e-15
  33    2.9425957284896e-15
  34    1.7511659423452e-15
  35    4.5295190704825e-15
  36    1.3874513345885e-15
  37    -1.6430568081676e-15
  38    -2.3665734551576e-14
  39    -1.8405265455476e-06
  40    1.840526545545e-06
  41    -3.0179888671527e-18
  42    0.00074811558092944
  43    1.8419770708085e-16
  44    0.00074811558092946
  45    4.7609909320568e-17
  46    2.6481953721659e-16
  47    2.4029105785778e-16
  48    -7.5666624685911e-19
  49    -1.3361544791556e-06
  50    1.3361544791539e-06
  51    2.3363264682902e-16
  52    1.1185447275474e-16
  53    0.00082960560732865
 Sym= A
 Ene=    0.5685749381
 Spin= Alpha
 Occup=    0.00000
   1     0.027528992898746
   2     0.012286152681343
   3      -1.6597645811952
   4    -3.5111510821819e-15
   5    -1.0274428417414e-15
   6     -0.12461365026099
   7    -1.9435494787711e-14
   8    8.493577958904e-15
   9      -1.5532020670697
  10      0.02752899289885
  11     0.012286152681382
  12      -1.6597645811976
  13    -3.2113687306921e-16
  14    -8.1314114242392e-16
  15      0.12461365026084
  16    1.6004050426399e-14
  17    -1.1045982104312e-14
  18       1.5532020670676
  19    0.0045837703158568
  20    -1.1088268300098e-16
  21    4.5852352267294e-17
  22    -3.633773994183e-15
  23     -0.40203390011215
  24     -0.40203390011219
  25       3.4624543360843
  26    4.5935264706514e-16
  27    2.2697389430885e-14
  28    -1.3864138460649e-14
  29     3.71064182388e-15
  30    5.6090879288279e-16
  31    3.6605872594227e-13
  32    1.6573369127613e-15
  33    2.7331328005001e-16
  34    -7.3484136572639e-14
  35    1.8029554379411e-15
  36    6.5104356058564e-16
  37    -6.9914998286935e-14
  38    4.5980589151413e-19
  39    0.0017524422845325
  40    0.0017524422845328
  41    0.0092394087913301
  42    -1.044479876167e-19
  43    -5.1223570344059e-18
  44    1.7764681587413e-19
  45    -1.9183974093105e-17
  46    -2.0618362658192e-17
  47    -9.4702222463638e-18
  48     0.001026125131988
  49    0.0030750613125488
  50    0.0030750613125487
  51    -1.045388079953e-17
  52    -2.9804559755215e-18
  53    9.0176837571678e-19
 Sym= A
 Ene=    0.6719015614
 Spin= Alpha
 Occup=    0.00000
   1    1.012393443891e-16
   2    -7.8021285752095e-18
   3    -2.6438628051574e-15
   4    -0.060746145841501
   5     -0.23786874814604
   6    -1.198543702125e-15
   7     -0.56897017065624
   8      -2.2279639366686
   9    -5.3483465992489e-15
  10    4.0791177271259e-16
  11    -1.1652344071669e-15
  12    -6.050354244679e-15
  13     0.060746145841524
  14      0.23786874814615
  15    5.9796696505698e-16
  16       0.5689701706562
  17       2.2279639366684
  18    3.0236709996765e-15
  19    1.1624787799707e-16
  20    -2.656885671723e-16
  21    1.6900793742252e-16
  22    -1.1942795150318e-16
  23    -4.7352743306128e-15
  24    2.9525065897565e-15
  25    8.295473293599e-15
  26    -1.1025572256388e-14
  27      0.65097493169353
  28       2.5490768168315
  29    -4.7822581889613e-15
  30    4.2355387823234e-14
  31    -1.2426687306552e-15
  32    9.0996694488492e-15
  33    4.3086372850634e-14
  34    -3.8494752987587e-16
  35    1.9197062378623e-14
  36    8.1737193062709e-14
  37    2.5596881109819e-15
  38    -8.8498287159126e-17
  39    -9.3573550470871e-18
  40    -7.444879232686e-17
  41    1.0320392926075e-16
  42    -9.197096541085e-17
  43    -2.3513598779417e-05
  44    1.2053468736436e-16
  45    -9.2074159250999e-05
  46    -0.00024778867349607
  47    -0.00097028676886111
  48    8.6049101866877e-17
  49    5.2830399478131e-17
  50    5.1860607767501e-17
  51    -4.1176815811253e-05
  52    -1.0515601053331e-05
  53    -9.7053401961097e-17
 Sym= A
 Ene=    0.6719015614
 Spin= Alpha
 Occup=    0.00000
   1    -6.7920451154814e-15
   2    4.6248957426275e-15
   3    1.8069412779728e-13
   4     -0.23786874814607
   5     0.060746145841493
   6    -8.2319565374783e-15
   7      -2.2279639366684
   8      0.56897017065628
   9    -1.6357159390435e-13
  10    7.0061619188835e-15
  11    -5.7265286208604e-15
  12    -1.513976606925e-13
  13      0.23786874814618
  14    -0.060746145841515
  15    -8.4552858398172e-15
  16       2.2279639366682
  17     -0.56897017065621
  18    -1.9228634001712e-13
  19    -1.8493616968408e-17
  20    -3.5927775749975e-16
  21    -4.9463871428114e-16
  22    -5.4035179481484e-16
  23    9.2040787855976e-15
  24    1.1468034593212e-15
  25    -3.2637011773919e-14
  26    -1.374447125795e-14
  27       2.5490768168313
  28     -0.65097493169355
  29    -2.4275298884103e-14
  30    -2.0851885984607e-14
  31    7.4240641723147e-14
  32    3.0764574936107e-14
  33    -1.4890159357476e-14
  34    -1.655849560204e-15
  35    5.5801200843611e-14
  36    -2.7113246512891e-14
  37    -4.4457920749069e-16
  38    -1.1816615787048e-15
  39    2.185647039821e-17
  40    -3.5234877315122e-17
  41    -1.5308873843524e-16
  42    -6.6750628392291e-17
  43    -9.2074159250902e-05
  44    -9.3598355833578e-17
  45     2.35135987794e-05
  46    -0.0009702867688606
  47    0.0002477886734961
  48    5.8515824807229e-17
  49    -4.5071504022149e-17
  50    -3.9567303948397e-18
  51    1.0515601053356e-05
  52    -4.1176815811183e-05
  53    -2.2253694709992e-17
 Sym= A
 Ene=     0.674986023
 Spin= Alpha
 Occup=    0.00000
   1      0.12718211102886
   2    -0.089626952864102
   3      -3.1648849730902
   4    -1.1465953760429e-14
   5    3.2835523124238e-15
   6      0.14637193182545
   7    -1.1806219498202e-13
   8    2.738694820501e-14
   9       3.4767517289547
  10     -0.12718211102886
  11     0.089626952864013
  12       3.1648849730894
  13    1.334701284428e-14
  14    -3.104131117832e-15
  15      0.14637193182554
  16    1.2051714875857e-13
  17    -2.7076727663265e-14
  18       3.4767517289555
  19    1.1558121457664e-15
  20    -4.468026173291e-16
  21    -5.8241747821743e-16
  22    0.0084306182225055
  23    -3.5272398265191e-14
  24    -1.9924227464608e-13
  25    9.4906684076599e-13
  26    5.379434611138e-17
  27    1.3656073916269e-13
  28    -3.0850425950241e-14
  29    -2.9304412218714e-15
  30    -3.3436430407684e-17
  31      -1.5386805555619
  32    -1.3332205751562e-15
  33    -3.8171567108104e-17
  34     0.038927970806172
  35    -1.2237831780404e-15
  36    -2.6173023027198e-16
  37     0.038927970806174
  38    -3.9375583117109e-18
  39    -8.787977050656e-18
  40    1.0364944676957e-16
  41    2.0657188150859e-15
  42    3.0740543946488e-21
  43    -1.2217506942692e-16
  44    -2.985605281228e-20
  45    -2.0713119100023e-16
  46    -1.8346366810457e-16
  47    -2.2468488356983e-16
  48    -2.2377861963833e-16
  49    2.3528994048981e-15
  50    1.8263373128592e-15
  51    -9.2492938821275e-17
  52    -5.4637010772513e-17
  53    2.1516146156513e-20
 Sym= A
 Ene=    0.9166925598
 Spin= Alpha
 Occup=    0.00000
   1    -1.028011699221e-16
   2    -5.5197074456424e-16
   3    3.9794220068694e-15
   4     0.066023845353018
   5     -0.28035905999895
   6    2.2454431507146e-15
   7      0.11991594384313
   8     -0.50920271479188
   9    -1.561467321348e-14
  10    1.4654245184772e-16
  11    1.3051028770538e-16
  12    -8.8209321730483e-15
  13     0.066023845353026
  14     -0.28035905999899
  15    1.8848615354808e-15
  16      0.11991594384303
  17     -0.50920271479133
  18    -9.4060978230928e-15
  19    2.3310492381921e-17
  20    -0.00010093121168505
  21    0.00042858726996648
  22    -1.0851257084301e-16
  23    7.8128158811575e-16
  24    -2.7690783061666e-15
  25    4.2785757327703e-15
  26    -4.147084936562e-15
  27    -4.3786808690958e-14
  28    2.2870496051688e-13
  29     -0.26726427152621
  30       1.1348923943427
  31    1.2048321260511e-14
  32     -0.11952421581791
  33      0.50753930817953
  34    -6.9780432975661e-16
  35    -0.082514299075219
  36      0.35038297453767
  37    -3.6783117879205e-15
  38    6.0118572382829e-16
  39    -4.7766711653807e-17
  40    9.2356897265669e-17
  41    1.446774493715e-16
  42    -4.4715904588088e-17
  43    -8.3287723686504e-17
  44    5.6439548134878e-17
  45    1.2301301598101e-16
  46    1.3278352418453e-16
  47    -3.2708442104425e-16
  48    -1.0321778972779e-16
  49    4.6941216204011e-17
  50    -3.1643102281677e-17
  51    1.1977347612741e-18
  52    -1.4972937140529e-17
  53    -5.5620011837785e-17
 Sym= A
 Ene=    0.9166925598
 Spin= Alpha
 Occup=    0.00000
   1    7.5317429082488e-16
   2    -2.79390317422e-17
   3    -1.1663827807711e-14
   4     -0.28035905999899
   5    -0.066023845353018
   6    -3.590210109686e-15
   7     -0.50920271479187
   8     -0.11991594384313
   9    3.0038477217224e-14
  10    -3.0461537706163e-16
  11    -2.2418988558999e-15
  12    2.4927827122005e-14
  13     -0.28035905999898
  14    -0.066023845353019
  15    -2.4853920262904e-15
  16     -0.50920271479126
  17     -0.11991594384305
  18    1.7507480039626e-14
  19    8.476909075081e-17
  20    0.00042858726996663
  21    0.00010093121168483
  22    -1.8264925988785e-16
  23    2.0102591719883e-14
  24    -1.5333933617947e-14
  25    -1.4219290655487e-14
  26    -1.3305392153125e-15
  27    2.7478466284034e-13
  28    3.0646825241618e-14
  29       1.1348923943427
  30      0.26726427152623
  31    -1.7857913258787e-14
  32      0.50753930817955
  33       0.1195242158179
  34    6.6854724810342e-15
  35      0.35038297453762
  36     0.082514299075231
  37    3.4368496197676e-15
  38    9.3803210286929e-15
  39    -1.1546335685255e-16
  40    8.5385452310745e-17
  41    -6.9877592976477e-18
  42    -6.7482748377988e-17
  43    3.3299148196941e-16
  44    2.837356776631e-16
  45    1.0681225689049e-16
  46    -6.3879190947472e-17
  47    -2.654697883269e-16
  48    7.0934602376336e-17
  49    9.8026743460289e-17
  50    1.3730771703025e-17
  51    -1.3462145314444e-16
  52    -2.1793820894112e-17
  53    -1.4807086477754e-16
 Sym= A
 Ene=     1.024647486
 Spin= Alpha
 Occup=    0.00000
   1     0.047121426141038
   2      0.10998065642798