[Molden Format]
made by pyscf v[1.7.6]
[Atoms] (AU)
N   1   7     0.00000000000000     0.00000000000000     1.03699996650642
N   2   7     0.00000000000000     0.00000000000000    -1.03699996650642
Ghost   3   0     0.00000000000000     0.00000000000000     0.00000000000000
[GTO]
1 0
 s    6 1.00
               4150.11  0.0018454099110651
               620.084     0.0141644993205
               141.688   0.068632496712421
               40.3367    0.22857398900806
               13.0267    0.46616197761644
               4.47003     0.3656719825129
 s    2 1.00
               5.42522   -0.41330007733644
               1.14915     1.2244172668117
 s    1 1.00
              0.283205                   1
 p    2 1.00
               5.42522    0.23797201619212
               1.14915    0.85895305857156
 p    1 1.00
              0.283205                   1

2 0
 s    6 1.00
               4150.11  0.0018454099110651
               620.084     0.0141644993205
               141.688   0.068632496712421
               40.3367    0.22857398900806
               13.0267    0.46616197761644
               4.47003     0.3656719825129
 s    2 1.00
               5.42522   -0.41330007733644
               1.14915     1.2244172668117
 s    1 1.00
              0.283205                   1
 p    2 1.00
               5.42522    0.23797201619212
               1.14915    0.85895305857156
 p    1 1.00
              0.283205                   1

3 0
 s    6 1.00
               4150.11  0.0018454099110651
               620.084     0.0141644993205
               141.688   0.068632496712421
               40.3367    0.22857398900806
               13.0267    0.46616197761644
               4.47003     0.3656719825129
 p    1 1.00
               5.42522                   1
 d    1 1.00
                 0.187                   1
 f    1 1.00
                0.3492                   1
 g    1 1.00
                 8.345                   1

[5d]
[7f]
[9g]

[MO]
 Sym= A
 Ene=    -15.71097335
 Spin= Alpha
 Occup=    2.00000
   1      0.70346802712692
   2     0.015406313632487
   3    -0.0004057666822357
   4    -2.5192507202431e-17
   5    -1.9509186389371e-17
   6    -0.0022816462589362
   7    8.8812196172541e-17
   8    -1.316464752064e-19
   9    0.0018754203032675
  10       0.7034680271304
  11     0.015406313632519
  12    -0.0004057666820345
  13    3.8038597866181e-17
  14    3.2917297540404e-17
  15    0.0022816462589532
  16    -3.4615984719785e-17
  17    -2.706443145683e-17
  18    -0.0018754203031453
  19    0.00033972003603249
  20    -1.5485931173011e-18
  21    -2.6336543443602e-18
  22    -1.1801334528766e-15
  23    -0.0015838338069783
  24    -2.1030079448054e-17
  25    -1.3288096916726e-17
  26    5.4909288538645e-19
  27    -2.8710910397244e-19
  28    -2.2827559661739e-14
  29    -3.2139629868738e-18
  30    -6.4064098339949e-18
  31    3.595823664937e-18
  32    5.0216653978998e-18
  33    -6.0989436135745e-20
  34    -4.2581567789418e-19
  35    0.00044954542059107
  36    -2.758452445799e-19
  37    -4.2017172903937e-19
  38    2.4956086559471e-18
  39    3.7128306045658e-20
  40    -5.1234363160632e-21
  41    -3.7879049948618e-22
  42    7.6983577616803e-18
  43    -2.216753888526e-21
 Sym= A
 Ene=    -15.70748267
 Spin= Alpha
 Occup=    2.00000
   1      0.70377308103434
   2     0.014472743790021
   3    -0.0017360745627905
   4    -5.6867555621564e-17
   5    6.9061685235259e-17
   6    -0.0019255145794159
   7    4.7698008239374e-17
   8    -2.3552449694098e-17
   9    0.00083662186639245
  10     -0.70377308103086
  11    -0.014472743789947
  12    0.0017360745627896
  13    -3.8859913916372e-17
  14    -3.2836516846297e-17
  15    -0.0019255145794053
  16    3.3812609632338e-17
  17    4.5184396414718e-17
  18    0.00083662186638739
  19    1.9841314671377e-16
  20    2.108153183455e-18
  21    1.1513633793429e-18
  22    0.00020303541389299
  23    -1.904911706017e-15
  24    1.9317555336383e-17
  25    2.6998538471885e-17
  26    2.745271512057e-18
  27    4.2358122937015e-18
  28    0.00067775149645528
  29    4.0972262631444e-18
  30    3.5825209371848e-18
  31    7.6120183028334e-19
  32    -1.2866762200937e-19
  33    -2.5162594958897e-19
  34    -1.5404843729945e-20
  35    1.1299685910779e-15
  36    3.3640911502255e-19
  37    8.8904058118662e-19
  38    6.8922409219736e-20
  39    1.7291027066527e-19
  40    -1.3289577149692e-20
  41    8.7364960391435e-22
  42    4.723812826224e-20
  43    3.4599433258672e-22
 Sym= A
 Ene=    -1.497020029
 Spin= Alpha
 Occup=    2.00000
   1     -0.17131640293796
   2      0.20291825622864
   3      0.30257531194016
   4    1.5290156305287e-15
   5    -1.3001437391482e-17
   6      -0.2041016181959
   7    3.7622163271819e-16
   8    6.7470081843021e-17
   9     -0.11571682412102
  10     -0.17131640293796
  11      0.20291825622867
  12      0.30257531194001
  13    7.1290321758744e-16
  14    2.0055304733206e-16
  15       0.2041016181959
  16    4.7308128815763e-16
  17    2.3191708923265e-16
  18      0.11571682412092
  19    0.0044124324378132
  20    3.2089694908538e-17
  21    1.7867377484804e-17
  22    -7.2613376283806e-17
  23     0.069189922375828
  24    -1.0420513553909e-16
  25    -6.1058760110174e-18
  26    -2.2657402602747e-17
  27    -1.4291268667554e-17
  28    1.4583980949847e-14
  29    -2.2618058240837e-16
  30    -1.0429087783906e-16
  31    5.0880003958623e-17
  32    4.5340819157477e-17
  33    2.3295527850367e-19
  34    -1.7413812456573e-17
  35    -0.00046746640233158
  36    3.4495316719356e-19
  37    -4.3210017632518e-20
  38    -4.6338176365356e-18
  39    3.9124538747951e-20
  40    3.3552358339868e-21
  41    -2.8021211516722e-23
  42    1.2298682019506e-17
  43    -6.4431429767437e-21
 Sym= A
 Ene=   -0.7690119216
 Spin= Alpha
 Occup=    2.00000
   1      0.16411122375691
   2      -0.1762433169981
   3      -0.7033074165892
   4    -3.5938977897679e-15
   5    -1.0928035215243e-15
   6     -0.16413670060982
   7    -1.1593747134383e-15
   8    -1.6082335672097e-15
   9    -0.062588198951851
  10     -0.16411122375692
  11       0.1762433169981
  12      0.70330741658922
  13    -2.9222523065572e-15
  14    -1.993108747301e-15
  15     -0.16413670060986
  16    -6.2773006657657e-15
  17    -8.4193940207098e-16
  18    -0.062588198951847
  19    -9.3457913115983e-17
  20    -8.7498908742776e-17
  21    -3.2478557179205e-17
  22    0.0071336355476754
  23    9.433299849377e-15
  24    -1.4031063565173e-15
  25    8.6538260167952e-16
  26    -8.102068555674e-17
  27    -1.2625389470409e-16
  28    -0.015214768608639
  29    4.8255901812936e-16
  30    1.7985589008639e-16
  31    6.314918386014e-18
  32    -1.957088961762e-17
  33    1.2308457461828e-17
  34    -8.4311520019324e-20
  35    2.9033535628353e-16
  36    1.1590550269178e-18
  37    4.6734715713045e-19
  38    -2.1345612554563e-20
  39    -7.9467736597517e-19
  40    2.0775382331475e-20
  41    -9.8934864438422e-22
  42    -1.1445381750313e-19
  43    -2.4257542809214e-21
 Sym= A
 Ene=   -0.6173024793
 Spin= Alpha
 Occup=    2.00000
   1    -0.064316100712868
   2     0.044530677587377
   3      0.41541148217884
   4    -1.9175794035576e-14
   5    -2.8358113564512e-15
   6      0.39212730448946
   7    -1.0307005937913e-14
   8    -4.7871682594509e-15
   9      0.34707907183312
  10    -0.064316100712845
  11     0.044530677587387
  12      0.41541148217853
  13    -1.7586459754709e-14
  14    -5.6977959878508e-15
  15     -0.39212730448944
  16    -2.472172443616e-14
  17    -5.1991770959957e-15
  18     -0.34707907183329
  19    -0.0028082225268657
  20    -4.6585595767255e-16
  21    -1.1967199465085e-16
  22    1.5854577553457e-16
  23     -0.10535044896918
  24    -3.5779650599748e-15
  25    3.1583990770531e-16
  26    9.7510257181562e-18
  27    -4.0705288839081e-17
  28    2.3706248136441e-14
  29    3.0095370135337e-15
  30    8.6438417005935e-16
  31    2.4952029782243e-17
  32    -1.6054229704236e-17
  33    -8.141118055758e-19
  34    -8.9277727772854e-18
  35    0.0032905686258937
  36    2.6681588212594e-18
  37    -1.1160135450431e-18
  38    3.712794334424e-18
  39    1.3714822349423e-19
  40    -1.0589695464377e-19
  41    -4.2556427427969e-21
  42    -8.8744439725717e-17
  43    -2.2850642214937e-20
 Sym= A
 Ene=   -0.6081112185
 Spin= Alpha
 Occup=    2.00000
   1    -4.5029817429672e-16
   2    -6.8534714376888e-16
   3    8.1709554388208e-15
   4     0.037991424448835
   5      0.36389428526518
   6    6.9431568235006e-15
   7     0.036468502675488
   8       0.3493072425768
   9    2.5794883595343e-15
  10    -1.7568009122316e-15
  11    1.7451158909175e-15
  12    6.6708031174891e-15
  13     0.037991424448833
  14       0.3638942852652
  15    -8.1506966224619e-15
  16     0.036468502675473
  17      0.34930724257678
  18    -9.3411735195093e-15
  19    -1.0531876108729e-16
  20    0.00094161962628786
  21    0.0090191406579455
  22    5.0801118770593e-17
  23    -2.1386007047671e-15
  24    -8.5985671466155e-15
  25    -1.1918398102916e-14
  26    -4.2085367696208e-15
  27    1.2929171683634e-15
  28    7.9089443945008e-16
  29    -0.0065073427961151
  30    -0.062329456979363
  31    -4.587471723967e-16
  32    5.0319037025979e-16
  33    -4.2285588893073e-17
  34    1.2947357656896e-15
  35    6.8497053357144e-17
  36    -1.1772925989001e-16
  37    -5.6704046336935e-17
  38    1.0384117459374e-18
  39    -9.1090612842067e-17
  40    3.4091444823199e-17
  41    3.4962417427106e-17
  42    -1.6676575084166e-17
  43    4.7158438901081e-17
 Sym= A
 Ene=   -0.6081112185
 Spin= Alpha
 Occup=    2.00000
   1    -1.7219568754226e-15
   2    1.4241417034129e-16
   3    8.6976618149836e-15
   4      0.36389428526519
   5     -0.03799142444883
   6    2.1291125776069e-14
   7      0.34930724257677
   8     -0.03646850267548
   9    8.2844733325361e-15
  10    -4.9752026753685e-15
  11    4.4443309173419e-15
  12    2.1685952349904e-14
  13      0.36389428526519
  14    -0.037991424448836
  15    -2.4025804976924e-14
  16       0.3493072425768
  17    -0.036468502675483
  18    -8.9008715016515e-15
  19    -1.309900431511e-16
  20    0.0090191406579459
  21    -0.00094161962628805
  22    1.9926020069682e-17
  23    4.0993465952227e-15
  24    1.1291311458916e-14
  25    5.7526334176401e-16
  26    7.5634995705317e-16
  27    -3.0437456411637e-17
  28    -5.233860526303e-16
  29    -0.062329456979365
  30    0.0065073427961173
  31    -3.2782433116493e-16
  32    -2.4559987475298e-16
  33    1.3515559274296e-16
  34    -1.1833790441345e-16
  35    1.5295533110327e-16
  36    1.0070375181716e-17
  37    -3.0799707000291e-17
  38    4.7794668186526e-17
  39    -8.6942545762142e-18
  40    6.506064727002e-19
  41    -1.8070378917097e-19
  42    -2.827209440106e-17
  43    1.7056658235563e-18
 Sym= A
 Ene=    0.1740981565
 Spin= Alpha
 Occup=    0.00000
   1    6.6021802688118e-17
   2    -7.5132322429057e-16
   3    -8.5559324375297e-16
   4      0.20323362529581
   5      0.30718218147199
   6    -3.6787239820361e-16
   7      0.10446535415498
   8      0.15789658493206
   9    -1.371293320856e-15
  10    2.5630996488695e-16
  11    -1.3217651901766e-16
  12    -1.9189276117071e-15
  13     -0.20323362529582
  14     -0.30718218147199
  15    1.115191636076e-15
  16     -0.10446535415498
  17     -0.15789658493205
  18    2.5838703963609e-15
  19    -4.901106337963e-17
  20    2.5825266107269e-16
  21    1.2594065180803e-16
  22    -2.4562833006371e-17
  23    1.1291238865466e-15
  24      0.28475833013952
  25      0.43040458938453
  26    -4.9375521416147e-16
  27    -9.8259093867545e-16
  28    -3.4386480524633e-16
  29    -2.0752694198119e-15
  30    -4.8703550667901e-15
  31    -1.2226795405364e-16
  32    7.8185388801629e-16
  33    2.7476642845409e-16
  34    1.8016677341103e-17
  35    -1.4297858940198e-18
  36    -0.0001888663966057
  37    -0.00028546650010091
  38    -4.3929778662985e-17
  39    -6.1776811105697e-17
  40    2.3134442388569e-18
  41    1.5836268743544e-16
  42    1.1110669820595e-16
  43    4.4497777319655e-17
 Sym= A
 Ene=    0.1740981565
 Spin= Alpha
 Occup=    0.00000
   1    -6.1070055707655e-16
   2    6.2372909291156e-16
   3    -1.3805971740482e-14
   4      0.30718218147199
   5     -0.20323362529582
   6    8.6755061834248e-16
   7      0.15789658493202
   8     -0.10446535415497
   9    -8.2815848676279e-15
  10    -1.2028542438418e-15
  11    7.5531690965074e-16
  12    -3.7082031064831e-15
  13     -0.30718218147198
  14      0.20323362529582
  15    -1.409019804975e-15
  16     -0.15789658493202
  17      0.10446535415496
  18    1.6987034911544e-14
  19    5.6684740465992e-17
  20    1.3331018972614e-16
  21    -5.0089586139144e-17
  22    -4.9832690768664e-17
  23    2.4549198754163e-14
  24      0.43040458938457
  25     -0.28475833013953
  26    -8.4071828481304e-16
  27    -6.5155833660364e-16
  28    -1.8629265718959e-15
  29    -6.1621733978448e-16
  30     1.83106458049e-15
  31    6.7232829148477e-16
  32    5.7904315380198e-17
  33    -7.2618024114962e-17
  34    -2.4550143234401e-17
  35    -6.0421294709626e-17
  36    -0.00028546650010093
  37    0.00018886639660548
  38    3.0577860468487e-18
  39    8.4548927680954e-18
  40    1.2126327724815e-17
  41    1.1747062464431e-17
  42    4.2660820466115e-17
  43    -3.0627735460545e-18
 Sym= A
 Ene=    0.4271834899
 Spin= Alpha
 Occup=    0.00000
   1    -0.060218079058974
   2     0.064077664475459
   3     -0.50121103318382
   4    -1.0748666514189e-14
   5    4.0940326374497e-15
   6     0.016341718625014
   7    1.9686823625636e-14
   8    -3.9714349722536e-16
   9     -0.67464835293898
  10     -0.06021807905896
  11     0.064077664475471
  12     -0.50121103318409
  13    1.0119064988582e-14
  14    -2.4570004730332e-15
  15    -0.016341718625058
  16    -2.4643759777743e-14
  17    2.861217730608e-16
  18      0.67464835293882
  19    0.0029230549895052
  20    -7.6687899054413e-18
  21    2.2303582510132e-17
  22    -7.6377024059097e-16
  23         1.52945239277
  24    -2.4621387716531e-14
  25    5.8767582352847e-15
  26    8.7859096326825e-16
  27    9.1617355696362e-16
  28    1.2572153745525e-14
  29    1.3115429676846e-16
  30    2.5416900100062e-16
  31    9.0431481628015e-17
  32    1.7003971567148e-16
  33    3.7555684164463e-18
  34    1.9857002175007e-18
  35    0.00080943535070619
  36    1.9703282623517e-17
  37    -6.3293995507423e-18
  38    3.8842961964376e-17
  39    1.0905505428942e-18
  40    3.2331437905834e-19
  41    6.4257744423931e-21
  42    -7.7352291202078e-17
  43    1.8370703065861e-19
 Sym= A
 Ene=    0.5205112966
 Spin= Alpha
 Occup=    0.00000
   1    2.7867774405843e-17
   2    2.3387641262123e-17
   3    1.4314172193601e-16
   4    3.3118357652612e-15
   5    -2.9617458279875e-15
   6    -5.1585840378695e-17
   7    2.180964161377e-14
   8    -6.0565908621473e-15
   9    3.3890124739435e-16
  10    2.0568109784301e-17
  11    1.2986376286956e-17
  12    2.3662818268418e-16
  13    -1.9135697224777e-15
  14    4.7968447044866e-16
  15    -2.286172261824e-18
  16    -2.3571650294036e-14
  17    1.3476107050394e-14
  18    -2.7506766398897e-16
  19    -9.9445417745481e-19
  20    2.1149632473438e-17
  21    -1.4928224337503e-17
  22    -9.6912594619339e-19
  23    -6.8669893926996e-16
  24    -2.5917573148366e-14
  25    1.1925785463599e-14
  26      0.91247425548699
  27     -0.40913397212775
  28    -3.2039210633925e-17
  29    1.4147995100441e-15
  30    1.2797188500156e-16
  31    -1.274362274796e-15
  32    -1.7646783538503e-15
  33    8.2547143109205e-16
  34    -2.2095387875584e-16
  35    -9.9210846778496e-21
  36    -1.3478830510732e-17
  37    -3.010294913707e-18
  38    0.00032379911937746
  39    -0.0001451846110569
  40    -5.5089116473601e-19
  41    2.6545828234761e-17
  42    1.0698247204989e-18
  43    1.7451813602605e-16
 Sym= A
 Ene=    0.5205112966
 Spin= Alpha
 Occup=    0.00000
   1    -4.5397070353702e-17
   2    -2.4104147881384e-17
   3    2.9485955271495e-15
   4    1.4364365964876e-14
   5    -8.8805303787274e-15
   6    -1.7215100015267e-16
   7    1.0216973989571e-13
   8    -5.820237193439e-14
   9    -1.0223256428337e-15
  10    1.8252890026363e-16
  11    -8.1980901823055e-17
  12    -1.6918895059574e-15
  13    -9.2709226048434e-15
  14    4.8447346825058e-15
  15    -9.7456018107919e-17
  16    -1.0662511244061e-13
  17    6.2821695763559e-14
  18    -2.7659669728911e-15
  19    -2.7499530578235e-18
  20    -2.5203097405723e-16
  21    -4.6616113569901e-17
  22    -8.8594998824748e-18
  23    -1.869141541825e-15
  24    -1.1917910579048e-13
  25    7.0445026031902e-14
  26      0.40913397212775
  27      0.91247425548699
  28    4.5428043251596e-16
  29    2.5723419824333e-16
  30    -2.5370922959015e-15
  31    -1.0398129457606e-14
  32    -1.3591983144766e-14
  33    -2.2451449645566e-16
  34    1.5369698316668e-15
  35    -9.5693508522251e-19
  36    6.1574247101825e-17
  37    -5.0669437480726e-18
  38    0.00014518461105696
  39    0.00032379911937752
  40    -4.659628992104e-19
  41    2.970140865819e-17
  42    4.6991521122551e-19
  43    8.1298749141383e-17
 Sym= A
 Ene=    0.6687164286
 Spin= Alpha
 Occup=    0.00000
   1    1.4002737290749e-16
   2    9.4596549038475e-16
   3    -4.4939485265111e-15
   4      -0.1146222254403
   5     -0.21498689078122
   6    -5.137269313123e-16
   7      -1.0755435510809
   8      -2.0173030409981
   9    4.5183173112673e-15
  10    -2.7768013041889e-16
  11    8.0394881368217e-17
  12    4.8766139498888e-15
  13      0.11462222544032
  14      0.21498689078125
  15    -7.7835504210576e-16
  16       1.0755435510808
  17        2.017303040998
  18    3.135503705395e-15
  19    2.3806816654618e-17
  20    -2.8616053632076e-17
  21    2.9969538610676e-17
  22    -8.7130973094871e-17
  23    -5.4639830175767e-16
  24       1.2372880042179
  25       2.3206729759951
  26    -6.9681276583153e-16
  27    -2.3910045649341e-15
  28    -1.8075033504111e-15
  29    3.6081681773553e-15
  30    -7.0902137496257e-15
  31     9.64853025656e-17
  32    -6.061637022832e-17
  33    -3.3616150439904e-18
  34    1.1909424687661e-15
  35    4.5202377911674e-17
  36    -0.00019388622547912
  37    -0.00036365544833003
  38    -5.1875769406251e-17
  39    -1.0865516593173e-16
  40    -3.0541567929898e-18
  41    -3.3321302240101e-17
  42    1.6730367146057e-17
  43    1.1851541817044e-16
 Sym= A
 Ene=    0.6687164286
 Spin= Alpha
 Occup=    0.00000
   1    8.0498277391149e-16
   2    9.7244560228277e-16
   3    -2.0409512926927e-14
   4     -0.21498689078123
   5      0.11462222544029
   6    1.282963460928e-15
   7       -2.017303040998
   8       1.0755435510809
   9    1.3368708296351e-14
  10    -1.0268125587581e-15
  11    6.1065947920343e-16
  12    1.8688836906892e-14
  13      0.21498689078127
  14     -0.11462222544031
  15    1.0748209363307e-15
  16        2.017303040998
  17      -1.0755435510809
  18     1.49579306094e-14
  19    4.9377014769727e-18
  20    -1.1395346249076e-16
  21    -9.0804729897685e-17
  22    7.3281590801466e-17
  23    5.7811508512891e-16
  24       2.3206729759951
  25      -1.2372880042179
  26    3.1891461728788e-14
  27    4.3887429730887e-14
  28    -1.4738055451695e-15
  29    3.9805311250216e-15
  30    -5.7208257882829e-15
  31    -1.0750882617864e-14
  32    -1.4051200484172e-14
  33    -1.835179967567e-16
  34    6.9139127248061e-16
  35    5.3937073377943e-17
  36    -0.00036365544833002
  37    0.00019388622547922
  38    7.4574361302352e-18
  39    7.3364434310174e-17
  40    -8.0800562431181e-18
  41    1.586263597894e-17
  42    -1.1747305146965e-17
  43    9.137319108328e-17
 Sym= A
 Ene=    0.7175852931
 Spin= Alpha
 Occup=    0.00000
   1      0.17947866545389
   2     0.011360473066334
   3      -3.7288193219406
   4    8.1674686451818e-16
   5    6.0645622900946e-16
   6      0.13458253241369
   7    1.1507088055046e-14
   8    -5.8234606052859e-15
   9       2.7869401047715
  10      -0.1794786654539
  11    -0.011360473066332
  12       3.7288193219406
  13    -3.741505050213e-16
  14    1.364253301104e-15
  15      0.13458253241373
  16    -1.2164646701601e-14
  17    5.0422471235373e-15
  18       2.7869401047715
  19    1.1082361467798e-16
  20    -5.5786762235794e-18
  21    1.5719530160198e-17
  22    0.0038525696692891
  23    2.2826322450006e-14
  24    -1.3993211724289e-14
  25    6.1064113041446e-15
  26    2.7139706820808e-16
  27    5.8065892758379e-16
  28     -0.38626491992603
  29    -8.4568924885007e-17
  30     2.44429538405e-16
  31    -2.3073451159362e-17
  32    -2.4063311636957e-17
  33    1.3649650593901e-17
  34    6.8938129572068e-19
  35    -4.057698955288e-16
  36    3.0418525467664e-18
  37    1.0525085755709e-18
  38    -2.8243725401249e-17
  39    -4.7167026198216e-19
  40    1.5178855369585e-19
  41    -2.2099565893314e-20
  42    2.5200848772769e-18
  43    -9.4976398468047e-21
 Sym= A
 Ene=     1.020531936
 Spin= Alpha
 Occup=    0.00000
   1     0.073620195523409
   2      0.13726165342489
   3      -1.5303870848486
   4    6.1535346226423e-15
   5    -7.3412710453678e-16
   6      -0.3887708716408
   7    -6.3385313910675e-15
   8    7.4100725429975e-15
   9       1.4027843710329
  10    -0.073620195523414
  11     -0.13726165342489
  12       1.5303870848487
  13    7.3418676255653e-15
  14    -1.2672163588362e-15
  15     -0.38877087164081
  16    -6.8525932291804e-15
  17    -4.4677606287473e-15
  18       1.4027843710329
  19    -2.5081235064946e-16
  20    5.7912991136789e-17
  21    -4.2012613397396e-19
  22    -0.0040427853569905
  23    -2.266746263116e-14
  24    -1.107533912946e-15
  25    -5.6881157918224e-15
  26    2.9401622452369e-17
  27    1.6529312985344e-16
  28      -0.9864759600489
  29    7.7349151770609e-15
  30    -2.1639418777897e-15
  31    3.6659404042032e-17
  32    2.2529727193656e-16
  33    -1.288412433248e-17
  34    -1.0909601953364e-18
  35    -1.9413990691248e-16
  36    3.0590429788516e-18
  37    -8.9017635910722e-18
  38    1.5167656075441e-16
  39    6.777912344404e-18
  40    -9.0731493575457e-19
  41    3.403125022213e-21
  42    1.3303271527583e-17
  43    6.752866381287e-20
 Sym= A
 Ene=     1.104897661
 Spin= Alpha
 Occup=    0.00000
   1    -8.0693766834695e-16
   2    -2.3157901728411e-15
   3    2.1351634055949e-14
   4      0.32651219983029
   5      0.12693684497208
   6    4.7332505262325e-15
   7     -0.36303157445458
   8     -0.14113433651318
   9    -1.7681846435256e-14
  10    1.0227713010421e-15
  11    1.5969009201218e-15
  12    -2.0296186779621e-14
  13      0.32651219983026
  14      0.12693684497207
  15    4.7222432283084e-15
  16     -0.36303157445459
  17     -0.14113433651321
  18    -1.8821821901743e-14
  19    -4.0695244481535e-17
  20    0.00093785811349385
  21    0.00036460735623465
  22    5.6091949818219e-17
  23    -1.6222838701473e-15
  24    -2.2696177118649e-14
  25    -1.3064847132829e-14
  26    -1.3581333040007e-15
  27    -3.7928227427991e-16
  28    1.1216133685191e-14
  29      0.70353260164489
  30       0.2735095620752
  31    9.2455657415345e-15
  32    6.7115230533075e-15
  33    -1.6774168747819e-15
  34    -5.684478264062e-15
  35    -1.6487292483401e-17
  36    -1.9217165755812e-16
  37    -7.3966684002592e-17
  38    -1.2184337534965e-16
  39    -2.5444169284782e-17
  40    1.287504376669e-17
  41    -3.4622126330227e-17
  42    5.1301602498553e-17
  43    -6.2255953855137e-17
 Sym= A
 Ene=     1.104897661
 Spin= Alpha
 Occup=    0.00000
   1    5.1606124064057e-16
   2    1.2463186736337e-15
   3    -9.2967396124368e-15
   4     -0.12693684497207
   5      0.32651219983029
   6    -3.3615370967421e-15
   7      0.14113433651315
   8     -0.36303157445456
   9    9.0556913728405e-15
  10    -4.6009037987385e-16
  11    -8.3638561646666e-16
  12    9.2960010038439e-15
  13     -0.12693684497206
  14      0.32651219983026
  15    -2.5351749821025e-15
  16      0.14113433651322
  17      -0.3630315744546
  18    8.3359301359275e-15
  19    -7.893838513883e-18
  20    -0.00036460735623425
  21    0.00093785811349411
  22    8.9201573695758e-18
  23    -6.9428070935099e-16
  24    4.4945687996413e-14
  25    -2.6621347123054e-14
  26    4.6168752593371e-15
  27    3.2996355539015e-15
  28    -7.5766172048992e-15
  29      -0.2735095620752
  30      0.70353260164488
  31    2.6418051966982e-14
  32    1.7998346227712e-14
  33    1.0574820618485e-15
  34    -9.9582773545045e-15
  35    1.6658886246269e-17
  36    1.395805984512e-17
  37    -2.0162152646099e-17
  38    3.5360550692521e-17
  39    -2.4365240729358e-16
  40    9.2056409264058e-18
  41    1.3957483961773e-17
  42    -1.1527235441428e-17
  43    1.8239576269855e-16
 Sym= A
 Ene=     1.301840327
 Spin= Alpha
 Occup=    0.00000
   1    5.7595426144412e-17
   2    -5.057453915186e-17
   3    5.2127165593347e-16
   4    2.9737254023864e-15
   5    -2.5722236299742e-14
   6    -2.4987065172949e-16
   7    -3.9241002321193e-14
   8    4.1003463904134e-14
   9    6.3767732640075e-16
  10    6.0111992654969e-17
  11    5.6573624995766e-17
  12    1.0132061344742e-16
  13    1.2156341482667e-14
  14    -3.0736511117124e-14
  15    5.068426568546e-16
  16    3.0129218141077e-14
  17    4.9871636245765e-15
  18    -1.0672920421395e-15
  19    2.1144022783327e-18
  20    -1.1220468741291e-16
  21    -5.4022624308791e-16
  22    2.1605055459175e-18
  23    -6.9052760695082e-16
  24    4.0216120424273e-14
  25    -2.1648791836331e-14
  26    9.1702872912992e-15
  27    1.4736942606629e-14
  28    1.4446599956032e-16
  29    -7.6470965249463e-15
  30    -5.2782415656734e-15
  31      0.61466317122025
  32      0.78878969690626
  33    -1.7155010383503e-15
  34    2.1839273026314e-14
  35    -3.9657527456447e-18
  36    -7.9517279336084e-17
  37    -6.544011585311e-18
  38    2.6058062665809e-18
  39    -2.1863311221289e-17
  40    -9.8199324628563e-19
  41    6.3393033155958e-17
  42    1.7644757432959e-19
  43    3.3031731917377e-17
 Sym= A
 Ene=     1.301840327
 Spin= Alpha
 Occup=    0.00000
   1    1.2966396208638e-17
   2    -1.8620376227927e-17
   3    -1.640594993409e-16
   4    3.0672479408054e-15
   5    -1.490656002559e-14
   6    -1.2851437551347e-16
   7    -4.4864952606944e-16
   8    1.2220808893342e-14
   9    2.4157240311282e-16
  10    5.9737088102154e-18
  11    -7.9810227454656e-17
  12    2.2632973927187e-16
  13    3.3382899890726e-15
  14    -1.5640670333219e-14
  15    1.4992289699061e-17
  16    -3.5394609813689e-15
  17    1.1355169615576e-14
  18    1.2100930235459e-16
  19    3.2465772710825e-19
  20    2.5501215295486e-16
  21    -3.1720561784827e-16
  22    -8.9030771456091e-19
  23    2.8141640848116e-17
  24    -1.5554137383129e-15
  25    -7.327660319237e-17
  26    8.3288727449195e-17
  27    -2.0442613400108e-16
  28    -9.6745384764655e-17
  29    -2.9376862177802e-15
  30    5.0818903274246e-15
  31      0.78878969690626
  32     -0.61466317122025
  33    -6.4457570132555e-15
  34    2.6848407056947e-14
  35    -1.2218165755978e-18
  36    -1.0728238299212e-16
  37    -1.3927386524677e-17
  38    -1.9573585365643e-18
  39    7.6370460100148e-18
  40    -1.3027005998656e-18
  41    1.1048107492805e-16
  42    -1.5593067438946e-19
  43    -2.3582660645387e-17
 Sym= A
 Ene=     1.333220527
 Spin= Alpha
 Occup=    0.00000
   1    -0.072681466503379
   2      0.20799418560796
   3      -0.5315309342528
   4    2.8324808426385e-14
   5    -1.0820985622049e-15
   6      0.66571384488162
   7       -1.38568028e-13
   8    6.0659984297193e-15
   9      -1.1077248245168
  10    -0.072681466503371
  11      0.20799418560799
  12     -0.53153093425278
  13    -4.1276516338378e-14
  14    2.3626405103451e-15
  15      -0.6657138448817
  16    1.4150364928646e-13
  17    -6.8259827923908e-15
  18       1.1077248245169
  19    -0.0069177899293701
  20    -1.970191516114e-16
  21    -5.9269488885336e-19
  22    -5.7328554190704e-16
  23      0.48528029890583
  24    9.8553798625863e-14
  25    -3.9888816001423e-15
  26    6.6197184935059e-18
  27     3.17202981864e-17
  28    5.7110245027414e-14
  29    5.3758938165535e-15
  30    -4.599372829586e-16
  31    4.1103152400847e-16
  32    3.5929626170352e-16
  33    -4.4684035160699e-17
  34    1.7317969247118e-17
  35    0.0091906784610702
  36    -8.4090635930819e-17
  37    4.2177510990539e-18
  38    8.5452386326981e-18
  39    8.0023743261323e-19
  40    -1.6439569323635e-19
  41    -4.6094962937409e-21
  42    -2.6043830183259e-16
  43    -2.184124542409e-20
 Sym= A
 Ene=     1.420013414
 Spin= Alpha
 Occup=    0.00000
   1    -5.2923134197522e-18
   2    1.8304332615363e-17
   3    1.877732036458e-17
   4    -1.0184186530871e-14
   5    6.4942219352984e-14
   6    2.3292702453538e-17
   7    6.8336821165759e-15
   8    -3.4807274638788e-14
   9    -4.0461793423997e-17
  10    -1.6011745042287e-18
  11    1.4649396216342e-17
  12    -4.5360088623104e-17
  13    -1.0371408388755e-14
  14    6.8438600555886e-14
  15    -1.6069163877011e-17
  16    5.005067981307e-15
  17    -5.1175510222827e-14
  18    8.0764012086811e-18
  19    1.3563296451255e-19
  20    -3.0891895062668e-16
  21    1.8079608459405e-15
  22    2.7608021591587e-19
  23    8.6740430913242e-19
  24    -1.0958911297582e-15
  25    -6.4339770209087e-15
  26    -6.4026715789766e-16
  27    -1.5696462151314e-16
  28    -1.5043435319959e-17
  29    1.4202655321285e-14
  30    -6.6899495429882e-14
  31    -1.0309677678283e-14
  32    -2.8491779959556e-15
  33      0.88967279057645
  34        0.456598648386
  35    3.8257436768324e-19
  36    5.6954788234952e-17
  37    1.1710213505694e-17
  38    -5.3933885905073e-19
  39    9.8827924109214e-18
  40    -2.9874745477671e-19
  41    -8.1273996094111e-17
  42    2.0345305003839e-19
  43    1.6685916343649e-17
 Sym= A
 Ene=     1.420013414
 Spin= Alpha