[Molden Format]
[Atoms] AU
  N     1    7     0.0000000000    0.0000000000    1.0370000000        
  N     2    7     0.0000000000    0.0000000000   -1.0370000000        
  X     3    0     0.0000000000    0.0000000000    0.0000000000        
[5D]
[7F]
[GTO]
  1  0
   s    10 1.00
  0.114200D+05  0.523000D-03
  0.171200D+04  0.404500D-02
  0.389300D+03  0.207750D-01
  0.110000D+03  0.807269D-01
  0.355700D+02  0.233074D+00
  0.125400D+02  0.433501D+00
  0.464400D+01  0.347472D+00
  0.129300D+01  0.412620D-01
  0.511800D+00 -0.850799D-02
  0.178700D+00  0.238400D-02
   s    10 1.00
  0.114200D+05 -0.115000D-03
  0.171200D+04 -0.895000D-03
  0.389300D+03 -0.462400D-02
  0.110000D+03 -0.185280D-01
  0.355700D+02 -0.573390D-01
  0.125400D+02 -0.132076D+00
  0.464400D+01 -0.172510D+00
  0.129300D+01  0.151814D+00
  0.511800D+00  0.599944D+00
  0.178700D+00  0.387462D+00
   s     1 1.00
  0.129300D+01  0.100000D+01
   s     1 1.00
  0.178700D+00  0.100000D+01
   s     1 1.00
  0.576000D-01  0.100000D+01
   p     5 1.00
  0.266300D+02  0.146700D-01
  0.594800D+01  0.917640D-01
  0.174200D+01  0.298683D+00
  0.555000D+00  0.498487D+00
  0.172500D+00  0.337023D+00
   p     1 1.00
  0.555000D+00  0.100000D+01
   p     1 1.00
  0.172500D+00  0.100000D+01
   p     1 1.00
  0.491000D-01  0.100000D+01
   d     1 1.00
  0.165400D+01  0.100000D+01
   d     1 1.00
  0.469000D+00  0.100000D+01
   d     1 1.00
  0.151000D+00  0.100000D+01
   f     1 1.00
  0.109300D+01  0.100000D+01
   f     1 1.00
  0.364000D+00  0.100000D+01
  
  2  0
   s    10 1.00
  0.114200D+05  0.523000D-03
  0.171200D+04  0.404500D-02
  0.389300D+03  0.207750D-01
  0.110000D+03  0.807269D-01
  0.355700D+02  0.233074D+00
  0.125400D+02  0.433501D+00
  0.464400D+01  0.347472D+00
  0.129300D+01  0.412620D-01
  0.511800D+00 -0.850799D-02
  0.178700D+00  0.238400D-02
   s    10 1.00
  0.114200D+05 -0.115000D-03
  0.171200D+04 -0.895000D-03
  0.389300D+03 -0.462400D-02
  0.110000D+03 -0.185280D-01
  0.355700D+02 -0.573390D-01
  0.125400D+02 -0.132076D+00
  0.464400D+01 -0.172510D+00
  0.129300D+01  0.151814D+00
  0.511800D+00  0.599944D+00
  0.178700D+00  0.387462D+00
   s     1 1.00
  0.129300D+01  0.100000D+01
   s     1 1.00
  0.178700D+00  0.100000D+01
   s     1 1.00
  0.576000D-01  0.100000D+01
   p     5 1.00
  0.266300D+02  0.146700D-01
  0.594800D+01  0.917640D-01
  0.174200D+01  0.298683D+00
  0.555000D+00  0.498487D+00
  0.172500D+00  0.337023D+00
   p     1 1.00
  0.555000D+00  0.100000D+01
   p     1 1.00
  0.172500D+00  0.100000D+01
   p     1 1.00
  0.491000D-01  0.100000D+01
   d     1 1.00
  0.165400D+01  0.100000D+01
   d     1 1.00
  0.469000D+00  0.100000D+01
   d     1 1.00
  0.151000D+00  0.100000D+01
   f     1 1.00
  0.109300D+01  0.100000D+01
   f     1 1.00
  0.364000D+00  0.100000D+01
  
  3  0
   s     1 1.00
  0.288000D-01  0.100000D+01
   s     1 1.00
  0.144000D-01  0.100000D+01
   s     1 1.00
  0.720000D-02  0.100000D+01
   p     1 1.00
  0.245500D-01  0.100000D+01
   p     1 1.00
  0.122750D-01  0.100000D+01
   p     1 1.00
  0.613750D-02  0.100000D+01
   d     1 1.00
  0.755000D-01  0.100000D+01
   d     1 1.00
  0.377500D-01  0.100000D+01
   d     1 1.00
  0.188750D-01  0.100000D+01
  
[MO]
 Sym= __1_Ag_
 Ene=   1.00000000000000     
 Spin= Alpha
 Occup=    1.00000000000000     
                     1  0.706800579901704     
                     2  1.288996414171801E-003
                     3  1.284262814227155E-003
                     4  1.392019025542112E-003
                     5  2.039657199919302E-003
                     6  0.000000000000000E+000
                     7  0.000000000000000E+000
                     8 -5.120251308885542E-003
                     9  0.000000000000000E+000
                    10  0.000000000000000E+000
                    11  2.584626810628589E-003
                    12  0.000000000000000E+000
                    13  0.000000000000000E+000
                    14  3.631815467317945E-003
                    15  0.000000000000000E+000
                    16  0.000000000000000E+000
                    17  7.626423082258399E-003
                    18  5.608535843921663E-004
                    19  0.000000000000000E+000
                    20  0.000000000000000E+000
                    21  9.708348363955747E-006
                    22  0.000000000000000E+000
                    23 -1.006430101420236E-003
                    24  0.000000000000000E+000
                    25  0.000000000000000E+000
                    26  1.029262326630011E-005
                    27  0.000000000000000E+000
                    28 -2.916032198016473E-004
                    29  0.000000000000000E+000
                    30  0.000000000000000E+000
                    31 -4.904443553517806E-006
                    32  0.000000000000000E+000
                    33 -1.591263469620388E-004
                    34  0.000000000000000E+000
                    35  0.000000000000000E+000
                    36  4.771507367837864E-006
                    37  0.000000000000000E+000
                    38  0.000000000000000E+000
                    39  0.000000000000000E+000
                    40 -4.627665959699713E-004
                    41  0.000000000000000E+000
                    42  0.000000000000000E+000
                    43  2.109038050956008E-006
                    44  0.000000000000000E+000
                    45  0.000000000000000E+000
                    46  0.000000000000000E+000
                    47  0.706800579901704     
                    48  1.288996414171801E-003
                    49  1.284262814227155E-003
                    50  1.392019025542112E-003
                    51  2.039657199919302E-003
                    52  0.000000000000000E+000
                    53  0.000000000000000E+000
                    54  5.120251308885542E-003
                    55  0.000000000000000E+000
                    56  0.000000000000000E+000
                    57 -2.584626810628589E-003
                    58  0.000000000000000E+000
                    59  0.000000000000000E+000
                    60 -3.631815467317945E-003
                    61  0.000000000000000E+000
                    62  0.000000000000000E+000
                    63 -7.626423082258399E-003
                    64  5.608535843921663E-004
                    65  0.000000000000000E+000
                    66  0.000000000000000E+000
                    67  9.708348363955747E-006
                    68  0.000000000000000E+000
                    69 -1.006430101420236E-003
                    70  0.000000000000000E+000
                    71  0.000000000000000E+000
                    72  1.029262326630011E-005
                    73  0.000000000000000E+000
                    74 -2.916032198016473E-004
                    75  0.000000000000000E+000
                    76  0.000000000000000E+000
                    77 -4.904443553517806E-006
                    78  0.000000000000000E+000
                    79  1.591263469620388E-004
                    80  0.000000000000000E+000
                    81  0.000000000000000E+000
                    82 -4.771507367837864E-006
                    83  0.000000000000000E+000
                    84  0.000000000000000E+000
                    85  0.000000000000000E+000
                    86  4.627665959699713E-004
                    87  0.000000000000000E+000
                    88  0.000000000000000E+000
                    89 -2.109038050956008E-006
                    90  0.000000000000000E+000
                    91  0.000000000000000E+000
                    92  0.000000000000000E+000
                    93 -3.872026601711061E-003
                    94 -1.523026168457427E-004
                    95  1.504812895454427E-004
                    96  0.000000000000000E+000
                    97  0.000000000000000E+000
                    98  0.000000000000000E+000
                    99  0.000000000000000E+000
                   100  0.000000000000000E+000
                   101  0.000000000000000E+000
                   102  0.000000000000000E+000
                   103  0.000000000000000E+000
                   104  0.000000000000000E+000
                   105 -2.376139292305843E-003
                   106  0.000000000000000E+000
                   107  0.000000000000000E+000
                   108  8.762706912644195E-006
                   109  0.000000000000000E+000
                   110 -2.634400839204603E-003
                   111  0.000000000000000E+000
                   112  0.000000000000000E+000
                   113 -5.125479326040064E-006
                   114  0.000000000000000E+000
                   115  2.635526470417504E-004
                   116  0.000000000000000E+000
                   117  0.000000000000000E+000
                   118  1.696008274833284E-006
                   119  0.000000000000000E+000
 Sym= __2_Ag_
 Ene=   2.00000000000000     
 Spin= Alpha
 Occup=    1.00000000000000     
                     1 -1.715148344750148E-002
                     2  0.632673342809867     
                     3 -4.971175230251036E-003
                     4 -0.121794614283438     
                     5  1.296502057192751E-002
                     6  0.000000000000000E+000
                     7  0.000000000000000E+000
                     8 -0.340271201052025     
                     9  0.000000000000000E+000
                    10  0.000000000000000E+000
                    11  3.673380229951535E-002
                    12  0.000000000000000E+000
                    13  0.000000000000000E+000
                    14  0.130197726370954     
                    15  0.000000000000000E+000
                    16  0.000000000000000E+000
                    17  6.792502607515752E-002
                    18  2.024046801515827E-002
                    19  0.000000000000000E+000
                    20  0.000000000000000E+000
                    21 -5.644236904138930E-005
                    22  0.000000000000000E+000
                    23  1.529788961855841E-002
                    24  0.000000000000000E+000
                    25  0.000000000000000E+000
                    26 -2.772101193543668E-004
                    27  0.000000000000000E+000
                    28 -2.618692760732233E-002
                    29  0.000000000000000E+000
                    30  0.000000000000000E+000
                    31 -1.237896059136603E-005
                    32  0.000000000000000E+000
                    33  7.693391250281211E-003
                    34  0.000000000000000E+000
                    35  0.000000000000000E+000
                    36  1.536000333159442E-004
                    37  0.000000000000000E+000
                    38  0.000000000000000E+000
                    39  0.000000000000000E+000
                    40 -4.923084725936934E-003
                    41  0.000000000000000E+000
                    42  0.000000000000000E+000
                    43  1.560048246242977E-004
                    44  0.000000000000000E+000
                    45  0.000000000000000E+000
                    46  0.000000000000000E+000
                    47 -1.715148344750148E-002
                    48  0.632673342809867     
                    49 -4.971175230251036E-003
                    50 -0.121794614283438     
                    51  1.296502057192751E-002
                    52  0.000000000000000E+000
                    53  0.000000000000000E+000
                    54  0.340271201052025     
                    55  0.000000000000000E+000
                    56  0.000000000000000E+000
                    57 -3.673380229951535E-002
                    58  0.000000000000000E+000
                    59  0.000000000000000E+000
                    60 -0.130197726370954     
                    61  0.000000000000000E+000
                    62  0.000000000000000E+000
                    63 -6.792502607515752E-002
                    64  2.024046801515827E-002
                    65  0.000000000000000E+000
                    66  0.000000000000000E+000
                    67 -5.644236904138930E-005
                    68  0.000000000000000E+000
                    69  1.529788961855841E-002
                    70  0.000000000000000E+000
                    71  0.000000000000000E+000
                    72 -2.772101193543668E-004
                    73  0.000000000000000E+000
                    74 -2.618692760732233E-002
                    75  0.000000000000000E+000
                    76  0.000000000000000E+000
                    77 -1.237896059136603E-005
                    78  0.000000000000000E+000
                    79 -7.693391250281211E-003
                    80  0.000000000000000E+000
                    81  0.000000000000000E+000
                    82 -1.536000333159442E-004
                    83  0.000000000000000E+000
                    84  0.000000000000000E+000
                    85  0.000000000000000E+000
                    86  4.923084725936934E-003
                    87  0.000000000000000E+000
                    88  0.000000000000000E+000
                    89 -1.560048246242977E-004
                    90  0.000000000000000E+000
                    91  0.000000000000000E+000
                    92  0.000000000000000E+000
                    93 -2.795860637588959E-002
                    94 -3.032522923951795E-003
                    95  1.550536257838892E-003
                    96  0.000000000000000E+000
                    97  0.000000000000000E+000
                    98  0.000000000000000E+000
                    99  0.000000000000000E+000
                   100  0.000000000000000E+000
                   101  0.000000000000000E+000
                   102  0.000000000000000E+000
                   103  0.000000000000000E+000
                   104  0.000000000000000E+000
                   105  3.955990113860174E-003
                   106  0.000000000000000E+000
                   107  0.000000000000000E+000
                   108 -7.773822213993372E-005
                   109  0.000000000000000E+000
                   110 -3.343950903877847E-002
                   111  0.000000000000000E+000
                   112  0.000000000000000E+000
                   113  5.520527994062300E-005
                   114  0.000000000000000E+000
                   115  5.248078603159637E-003
                   116  0.000000000000000E+000
                   117  0.000000000000000E+000
                   118 -2.078401213345322E-005
                   119  0.000000000000000E+000
 Sym= __3_Ag_
 Ene=   3.00000000000000     
 Spin= Alpha
 Occup=    1.00000000000000     
                     1  3.995328299099758E-003
                     2  0.228021423226321     
                     3 -1.632673222020615E-003
                     4  0.166739469728236     
                     5  0.115420202060390     
                     6  0.000000000000000E+000
                     7  0.000000000000000E+000
                     8  0.685402089584287     
                     9  0.000000000000000E+000
                    10  0.000000000000000E+000
                    11 -4.478306842652155E-002
                    12  0.000000000000000E+000
                    13  0.000000000000000E+000
                    14 -7.469836068927183E-002
                    15  0.000000000000000E+000
                    16  0.000000000000000E+000
                    17  0.132528404195868     
                    18 -1.840028664863642E-002
                    19  0.000000000000000E+000
                    20  0.000000000000000E+000
                    21  6.595669636643000E-005
                    22  0.000000000000000E+000
                    23 -1.620125612983122E-002
                    24  0.000000000000000E+000
                    25  0.000000000000000E+000
                    26 -5.622976594655882E-005
                    27  0.000000000000000E+000
                    28  5.020950202975979E-003
                    29  0.000000000000000E+000
                    30  0.000000000000000E+000
                    31 -2.847750167588776E-004
                    32  0.000000000000000E+000
                    33 -5.875803998850231E-003
                    34  0.000000000000000E+000
                    35  0.000000000000000E+000
                    36 -1.609273403158711E-004
                    37  0.000000000000000E+000
                    38  0.000000000000000E+000
                    39  0.000000000000000E+000
                    40  2.558457575948070E-003
                    41  0.000000000000000E+000
                    42  0.000000000000000E+000
                    43 -1.121300784153983E-004
                    44  0.000000000000000E+000
                    45  0.000000000000000E+000
                    46  0.000000000000000E+000
                    47  3.995328299099758E-003
                    48  0.228021423226321     
                    49 -1.632673222020615E-003
                    50  0.166739469728236     
                    51  0.115420202060390     
                    52  0.000000000000000E+000
                    53  0.000000000000000E+000
                    54 -0.685402089584287     
                    55  0.000000000000000E+000
                    56  0.000000000000000E+000
                    57  4.478306842652155E-002
                    58  0.000000000000000E+000
                    59  0.000000000000000E+000
                    60  7.469836068927183E-002
                    61  0.000000000000000E+000
                    62  0.000000000000000E+000
                    63 -0.132528404195868     
                    64 -1.840028664863642E-002
                    65  0.000000000000000E+000
                    66  0.000000000000000E+000
                    67  6.595669636643000E-005
                    68  0.000000000000000E+000
                    69 -1.620125612983122E-002
                    70  0.000000000000000E+000
                    71  0.000000000000000E+000
                    72 -5.622976594655882E-005
                    73  0.000000000000000E+000
                    74  5.020950202975979E-003
                    75  0.000000000000000E+000
                    76  0.000000000000000E+000
                    77 -2.847750167588776E-004
                    78  0.000000000000000E+000
                    79  5.875803998850231E-003
                    80  0.000000000000000E+000
                    81  0.000000000000000E+000
                    82  1.609273403158711E-004
                    83  0.000000000000000E+000
                    84  0.000000000000000E+000
                    85  0.000000000000000E+000
                    86 -2.558457575948070E-003
                    87  0.000000000000000E+000
                    88  0.000000000000000E+000
                    89  1.121300784153983E-004
                    90  0.000000000000000E+000
                    91  0.000000000000000E+000
                    92  0.000000000000000E+000
                    93 -0.133382257613679     
                    94  2.972752474143772E-002
                    95 -6.003127202389595E-003
                    96  0.000000000000000E+000
                    97  0.000000000000000E+000
                    98  0.000000000000000E+000
                    99  0.000000000000000E+000
                   100  0.000000000000000E+000
                   101  0.000000000000000E+000
                   102  0.000000000000000E+000
                   103  0.000000000000000E+000
                   104  0.000000000000000E+000
                   105 -4.897763780947557E-002
                   106  0.000000000000000E+000
                   107  0.000000000000000E+000
                   108 -4.750959999758816E-005
                   109  0.000000000000000E+000
                   110 -3.756794933650478E-002
                   111  0.000000000000000E+000
                   112  0.000000000000000E+000
                   113 -9.876297349997065E-005
                   114  0.000000000000000E+000
                   115  1.652195653424293E-003
                   116  0.000000000000000E+000
                   117  0.000000000000000E+000
                   118  2.098609890470286E-005
                   119  0.000000000000000E+000
 Sym= __4_Ag_
 Ene=   4.00000000000000     
 Spin= Alpha
 Occup=    1.00000000000000     
                     1 -6.808187455894201E-004
                     2 -8.061669396870925E-003
                     3  7.779187064493604E-004
                     4  2.091866506623651E-002
                     5  -2.07427387850354     
                     6  0.000000000000000E+000
                     7  0.000000000000000E+000
                     8 -7.996152859552562E-003
                     9  0.000000000000000E+000
                    10  0.000000000000000E+000
                    11  2.667444970165478E-003
                    12  0.000000000000000E+000
                    13  0.000000000000000E+000
                    14 -1.457839171466457E-002
                    15  0.000000000000000E+000
                    16  0.000000000000000E+000
                    17  -2.15450391750836     
                    18 -4.159641290226028E-004
                    19  0.000000000000000E+000
                    20  0.000000000000000E+000
                    21  6.716411796062081E-005
                    22  0.000000000000000E+000
                    23  3.044217792513276E-003
                    24  0.000000000000000E+000
                    25  0.000000000000000E+000
                    26 -4.817039126626114E-004
                    27  0.000000000000000E+000
                    28 -4.210698376370003E-002
                    29  0.000000000000000E+000
                    30  0.000000000000000E+000
                    31  2.945694562507300E-003
                    32  0.000000000000000E+000
                    33  9.748128366802045E-004
                    34  0.000000000000000E+000
                    35  0.000000000000000E+000
                    36 -4.732242048257242E-006
                    37  0.000000000000000E+000
                    38  0.000000000000000E+000
                    39  0.000000000000000E+000
                    40 -3.227461175928557E-003
                    41  0.000000000000000E+000
                    42  0.000000000000000E+000
                    43 -1.648468142168654E-005
                    44  0.000000000000000E+000
                    45  0.000000000000000E+000
                    46  0.000000000000000E+000
                    47 -6.808187455894201E-004
                    48 -8.061669396870925E-003
                    49  7.779187064493604E-004
                    50  2.091866506623651E-002
                    51  -2.07427387850354     
                    52  0.000000000000000E+000
                    53  0.000000000000000E+000
                    54  7.996152859552562E-003
                    55  0.000000000000000E+000
                    56  0.000000000000000E+000
                    57 -2.667444970165478E-003
                    58  0.000000000000000E+000
                    59  0.000000000000000E+000
                    60  1.457839171466457E-002
                    61  0.000000000000000E+000
                    62  0.000000000000000E+000
                    63   2.15450391750836     
                    64 -4.159641290226028E-004
                    65  0.000000000000000E+000
                    66  0.000000000000000E+000
                    67  6.716411796062081E-005
                    68  0.000000000000000E+000
                    69  3.044217792513276E-003
                    70  0.000000000000000E+000
                    71  0.000000000000000E+000
                    72 -4.817039126626114E-004
                    73  0.000000000000000E+000
                    74 -4.210698376370003E-002
                    75  0.000000000000000E+000
                    76  0.000000000000000E+000
                    77  2.945694562507300E-003
                    78  0.000000000000000E+000
                    79 -9.748128366802045E-004
                    80  0.000000000000000E+000
                    81  0.000000000000000E+000
                    82  4.732242048257242E-006
                    83  0.000000000000000E+000
                    84  0.000000000000000E+000
                    85  0.000000000000000E+000
                    86  3.227461175928557E-003
                    87  0.000000000000000E+000
                    88  0.000000000000000E+000
                    89  1.648468142168654E-005
                    90  0.000000000000000E+000
                    91  0.000000000000000E+000
                    92  0.000000000000000E+000
                    93   5.67118577181048     
                    94  -5.58014501653066     
                    95   3.64319051046704     
                    96  0.000000000000000E+000
                    97  0.000000000000000E+000
                    98  0.000000000000000E+000
                    99  0.000000000000000E+000
                   100  0.000000000000000E+000
                   101  0.000000000000000E+000
                   102  0.000000000000000E+000
                   103  0.000000000000000E+000
                   104  0.000000000000000E+000
                   105  0.423485806622238     
                   106  0.000000000000000E+000
                   107  0.000000000000000E+000
                   108 -1.707895466751156E-002
                   109  0.000000000000000E+000
                   110   1.06654876207285     
                   111  0.000000000000000E+000
                   112  0.000000000000000E+000
                   113  3.519070016100384E-002
                   114  0.000000000000000E+000
                   115 -0.241043418271634     
                   116  0.000000000000000E+000
                   117  0.000000000000000E+000
                   118 -4.479358978603732E-002
                   119  0.000000000000000E+000
 Sym= __5_Ag_
 Ene=   5.00000000000000     
 Spin= Alpha
 Occup=    1.00000000000000     
                     1 -2.498050337204896E-003
                     2  2.396572316410569E-002
                     3  4.469135762498171E-004
                     4 -3.901205472862955E-002
                     5  -4.80220315326084     
                     6  0.000000000000000E+000
                     7  0.000000000000000E+000
                     8  3.838424574683109E-002
                     9  0.000000000000000E+000
                    10  0.000000000000000E+000
                    11  7.974306021790632E-003
                    12  0.000000000000000E+000
                    13  0.000000000000000E+000
                    14 -7.803271456379700E-002
                    15  0.000000000000000E+000
                    16  0.000000000000000E+000
                    17  -5.54029551590169     
                    18 -1.652707229796365E-003
                    19  0.000000000000000E+000
                    20  0.000000000000000E+000
                    21 -2.773970293220496E-004
                    22  0.000000000000000E+000
                    23  8.549218120433412E-003
                    24  0.000000000000000E+000
                    25  0.000000000000000E+000
                    26  2.337184846064724E-003
                    27  0.000000000000000E+000
                    28 -3.381574080853711E-002
                    29  0.000000000000000E+000
                    30  0.000000000000000E+000
                    31 -1.414671583403594E-002
                    32  0.000000000000000E+000
                    33  1.411010977989430E-003
                    34  0.000000000000000E+000
                    35  0.000000000000000E+000
                    36  2.216965519768436E-005
                    37  0.000000000000000E+000
                    38  0.000000000000000E+000
                    39  0.000000000000000E+000
                    40 -7.635576580953385E-004
                    41  0.000000000000000E+000
                    42  0.000000000000000E+000
                    43  5.067497830477900E-005
                    44  0.000000000000000E+000
                    45  0.000000000000000E+000
                    46  0.000000000000000E+000
                    47 -2.498050337204896E-003
                    48  2.396572316410569E-002
                    49  4.469135762498171E-004
                    50 -3.901205472862955E-002
                    51  -4.80220315326084     
                    52  0.000000000000000E+000
                    53  0.000000000000000E+000
                    54 -3.838424574683109E-002
                    55  0.000000000000000E+000
                    56  0.000000000000000E+000
                    57 -7.974306021790632E-003
                    58  0.000000000000000E+000
                    59  0.000000000000000E+000
                    60  7.803271456379700E-002
                    61  0.000000000000000E+000
                    62  0.000000000000000E+000
                    63   5.54029551590169     
                    64 -1.652707229796365E-003
                    65  0.000000000000000E+000
                    66  0.000000000000000E+000
                    67 -2.773970293220496E-004
                    68  0.000000000000000E+000
                    69  8.549218120433412E-003
                    70  0.000000000000000E+000
                    71  0.000000000000000E+000
                    72  2.337184846064724E-003
                    73  0.000000000000000E+000
                    74 -3.381574080853711E-002
                    75  0.000000000000000E+000
                    76  0.000000000000000E+000
                    77 -1.414671583403594E-002
                    78  0.000000000000000E+000
                    79 -1.411010977989430E-003
                    80  0.000000000000000E+000
                    81  0.000000000000000E+000
                    82 -2.216965519768436E-005
                    83  0.000000000000000E+000