******************************************************
*** WorkDir and CurrDir are the same, not cleaned! ***
******************************************************
   This run of MOLCAS is using the pymolcas driver

                             OPE
                             OPE          NMOL  CASOP  ENMOLC A   SO
                 OPE        NMOLC        AS  OP EN  MO LC     AS  OP
                OPENM       OL CA        SO  PE NM  OL CA     SOP EN
                OP EN      MO   LC       AS  OP ENMOL  CASO   PENMOL
                OP  EN     MO   LC       AS  OP EN     MO     LC ASO
               OP   E  NMOL  C  AS       OP  EN MO     LC     AS  OP
               OP  E   NMO   LC AS        OPEN  MO     LCASOP EN   M
               O  PEN   MO  LCA  SO
            OPE   NMO   L   CAS    OP
        OPENMOL  CASOP     ENMOL   CASOPE
     OPENMOLCA   SOPENMOLCASOPEN   MOLCASOPE
    OPENMOLCAS   OP           EN   MOL    CAS
    OPENMOLCAS       OP  ENM        O     LCA
    OPENMOLCAS    OPEN  MOLCASO     P  E  NMO
    OPENMOLCAS     OP               E  N  MOL
    OPENMOLCA   SO           PENM   O  L  CAS    OPEN    MO    LCAS
    OPENMOLCA   SOP           ENM   O  L  CAS   OP  EN  MOLC  AS   O
    OPENMOLCA   SOPE           NM      O  LCA   S      OP  EN MO
    OPENMOLC                AS         O  PEN   M      OL  CA  SOPE
    OPENMO        LCASOPE  NMOL        C  ASO   P      ENMOLC     AS
    OPE     NMO      LCA  SO     P     E   NM   OL  CA SO  PE N   MO
          OPENMOLCA            SOPE   NMO        LCAS  O    P  ENMO
     OPENMOLCASOPENMOLCASOPENMOLCASOPENMOLCA
        OPENMOLCASOPENMOLCASOPENMOLCASOPE
            OPENMOLCASOPENMOLCASOPENM
               OPENMOLCASOPENMOLCA        version: 19.11
                   OPENMOLCASO
                       OPE                tag: 1162-ga18ab34

 OpenMolcas is free software; you can redistribute it and/or modify it
 under the terms of the GNU Lesser General Public License version 2.1.
 OpenMolcas is distributed in the hope that it will be useful, but it
 is provided "as is" and without any express or implied warranties.
 For more details see the full text of the license in the file
 LICENSE or in <http://www.gnu.org/licenses/>.

                 Copyright (C) The OpenMolcas Authors
           For the author list and the recommended citation,
                   consult the file CONTRIBUTORS.md

           *************************************************
           * pymolcas version py2.08                       *
           *   build bed633bbe89b7744c23cdbfc3f64969c      *
           *   (after the EMIL interpreter by V. Veryazov) *
           *************************************************

configuration info
------------------
C Compiler ID: GNU
C flags: -std=gnu99 -fopenmp
Fortran Compiler ID: GNU
Fortran flags: -fno-aggressive-loop-optimizations -cpp -fdefault-integer-8 -fopenmp
Definitions: _MOLCAS_;_I8_;_LINUX_;_MKL_;_DMRG_
Parallel: OFF (GA=OFF)


   -------------------------------------------------------------------------------------
  |
  |             Project: anion_ms
  |      Submitted from: /scratch/gayverjr/anion_ms.997671769
  |        Scratch area: /scratch/gayverjr/anion_ms.997671769
  |     Save outputs to: /home/gayverjr/OpenCAP/n2_molcas/full_N2_example/symmetry/anion
  |              Molcas: /home/qcsoftware/OpenMolcas/qcmaquis_build/build
  |
  | Scratch area is NOT empty
  |
  |      MOLCAS_DRIVER = /home/qcsoftware/bin/pymolcas
  | MOLCAS_NEW_WORKDIR = YES
  |      MOLCAS_NPROCS = 16
  |      MOLCAS_SOURCE = /home/qcsoftware/OpenMolcas/Molcas_src
  |   MOLCAS_STRUCTURE = 0
  |
   -------------------------------------------------------------------------------------

++ ---------   Input file   ---------

&GATEWAY
Expert
Basis set
 N.aug-cc-pvtz
 N1  0.0  0.0  1.039
End of Basis
Basis set
X ..... / inline
   0.00   2
    3    3
               0.0288
               0.0144
               0.0072
      1.00000000             0.00000000             0.00000000
      0.00000000             1.00000000             0.00000000
      0.00000000             0.00000000             1.00000000
     3    3
               0.02455
               0.012275
               0.0061375
     1.00000000             0.00000000             0.00000000
     0.00000000             1.00000000             0.00000000
     0.00000000             0.00000000             1.00000000
     3    3
               0.0755
               0.03775
               0.018875
      1.000000E+00           0.000000E+00           0.000000E+00           0.00000000
      0.000000E+00           1.000000E+00           0.000000E+00           0.00000000
      0.000000E+00           0.000000E+00           1.000000E+00           0.00000000
X1  0.000  0.000  0.000
End of basis
Symmetry
x y z

&SEWARD

>>> COPY /home/gayverjr/OpenCAP/n2_molcas/full_N2_example/symmetry/orbs/casscf/cas_orbs.RasOrb INPORB

&RASSCF
LUMORB
Inactive = 3 0 0 0 2 0 0 0
Ras2= 0 1 1 0 0 4 4 0
TDM
Symmetry = 6
Charge = -1
CIROOT= 10 10 1

&CASPT2
MAXIter = 50
MULtistate = all

&RASSI
TRD1
Heff
EJOB

-- ----------------------------------

--- Start Module: gateway at Thu Jul 16 12:10:59 2020 ---

()()()()()()()()()()()()()()()()()()()()()()()()()()()()()()()()()()()()()()()()()()()()()()()()()()

                                              &GATEWAY

                                   only a single process is used
                       available to each process: 20 GB of memory, 16 threads
                                             pid: 30114
()()()()()()()()()()()()()()()()()()()()()()()()()()()()()()()()()()()()()()()()()()()()()()()()()()

 ###############################################################################
 ###############################################################################
 ###                                                                         ###
 ###                                                                         ###
 ###    WARNING:  EXPERT option is ON!                                       ###
 ###                                                                         ###
 ###                                                                         ###
 ###############################################################################
 ###############################################################################

++    Symmetry information:
      ---------------------

                    --- Group Generators ---
                    Reflection in the yz-plane  
                    Reflection in the xz-plane  
                    Reflection in the xy-plane  

                    Character Table for D2h

                             E   s(yz) s(xz) C2(z) s(xy) C2(y) C2(x)   i  
                    ag       1     1     1     1     1     1     1     1  
                    b3u      1    -1     1    -1     1    -1     1    -1  x
                    b2u      1     1    -1    -1     1     1    -1    -1  y
                    b1g      1    -1    -1     1     1    -1    -1     1  xy, Rz
                    b1u      1     1     1     1    -1    -1    -1    -1  z
                    b2g      1    -1     1    -1    -1     1    -1     1  xz, Ry
                    b3g      1     1    -1    -1    -1    -1     1     1  yz, Rx
                    au       1    -1    -1     1    -1     1     1    -1  I
--


++    Basis set information:
      ----------------------


      Basis set label: N.AUG-CC-PVTZ.........

      Electronic valence basis set:
      ------------------
      Associated Effective Charge   7.000000 au
      Associated Actual Charge      7.000000 au
      Nuclear Model: Point charge

      Shell  nPrim  nBasis  Cartesian Spherical Contaminant
         s      11       5        X                  
         p       6       4        X                  
         d       3       3                 X         
         f       2       2                 X         


      Basis set label: X...............................................................................

      Electronic valence basis set:
      ------------------
      Associated Effective Charge   0.000000 au
      Associated Actual Charge      0.000000 au
      Nuclear Model: Point charge

      Shell  nPrim  nBasis  Cartesian Spherical Contaminant
         s       3       3        X                  
         p       3       3        X                  
         d       3       3                 X         
--


++    Molecular structure info:
      -------------------------

                    ************************************************ 
                    **** Cartesian Coordinates / Bohr, Angstrom **** 
                    ************************************************ 

     Center  Label                x              y              z                     x              y              z
        1      N1               0.000000       0.000000       1.039000              0.000000       0.000000       0.549815
        2      N1               0.000000       0.000000      -1.039000              0.000000       0.000000      -0.549815
        3      X1               0.000000       0.000000       0.000000              0.000000       0.000000       0.000000

                    *************************************** 
                    *    InterNuclear Distances / Bohr    * 
                    *************************************** 

               1 N1            2 N1            3 X1    
    1 N1       0.000000
    2 N1       2.078000        0.000000
    3 X1       1.039000        1.039000        0.000000

                    ******************************************* 
                    *    InterNuclear Distances / Angstrom    * 
                    ******************************************* 

               1 N1            2 N1            3 X1    
    1 N1       0.000000
    2 N1       1.099630        0.000000
    3 X1       0.549815        0.549815        0.000000

                    ************************************** 
                    *    Valence Bond Angles / Degree    * 
                    ************************************** 
                          Atom centers                 Phi
                      2 N1       1 N1       3 X1         0.00
                      1 N1       2 N1       3 X1         0.00
                      1 N1       3 X1       2 N1       180.00
--


            Nuclear Potential Energy             23.58036574 au

--- Stop Module: gateway at Thu Jul 16 12:11:02 2020 /rc=_RC_ALL_IS_WELL_ ---
*** files: xmldump
    saved to directory /home/gayverjr/OpenCAP/n2_molcas/full_N2_example/symmetry/anion
--- Module gateway spent 2 seconds ---

--- Start Module: seward at Thu Jul 16 12:11:02 2020 ---

()()()()()()()()()()()()()()()()()()()()()()()()()()()()()()()()()()()()()()()()()()()()()()()()()()

                                              &SEWARD

                                   only a single process is used
                       available to each process: 20 GB of memory, 16 threads
                                             pid: 30135
()()()()()()()()()()()()()()()()()()()()()()()()()()()()()()()()()()()()()()()()()()()()()()()()()()

               SEWARD will generate:
                  Multipole Moment integrals up to order  2
                  Kinetic Energy integrals
                  Nuclear Attraction integrals (point charge)
                  One-Electron Hamiltonian integrals
                  Velocity integrals
                  Orbital angular momentum around ( 0.0000  0.0000  0.0000 )
                  Velocity quadrupole around ( 0.0000  0.0000  0.0000 )
                  Two-Electron Repulsion integrals

                   Integrals are discarded if absolute value <: 0.10E-13
                   Integral cutoff threshold is set to       <: 0.10E-15

                    Unitary symmetry adaptation


            Nuclear Potential Energy             23.58036574 au


      Basis set specifications :
      Symmetry species         ag   b3u  b2u  b1g  b1u  b2g  b3g  au 
      Basis functions           28   14   14    8   22   14   14    5


  Input file to MOLDEN was generated!

--- Stop Module: seward at Thu Jul 16 12:11:06 2020 /rc=_RC_ALL_IS_WELL_ ---
*** files: anion_ms.GssOrb anion_ms.guessorb.h5 anion_ms.guessorb.molden xmldump
    saved to directory /home/gayverjr/OpenCAP/n2_molcas/full_N2_example/symmetry/anion
--- Module seward spent 4 seconds ---

>>> COPY /home/gayverjr/OpenCAP/n2_molcas/full_N2_example/symmetry/orbs/casscf/cas_orbs.RasOrb INPORB

--- Start Module: rasscf at Thu Jul 16 12:11:06 2020 ---

()()()()()()()()()()()()()()()()()()()()()()()()()()()()()()()()()()()()()()()()()()()()()()()()()()

                                              &RASSCF

                                   only a single process is used
                       available to each process: 20 GB of memory, 16 threads
                                             pid: 30166
()()()()()()()()()()()()()()()()()()()()()()()()()()()()()()()()()()()()()()()()()()()()()()()()()()

 ###############################################################################
 ###############################################################################
 ###                                                                         ###
 ###                                                                         ###
 ###    WARNING: Had to guess the spin.                                      ###
 ###                                                                         ###
 ###                                                                         ###
 ###############################################################################
 ###############################################################################
  Warning: no input and no reliable source
  for the spin multiplicity.
  Guess ISPIN=                    2

      Header of the ONEINT file:
      --------------------------
      
      Integrals generated by seward 4.2.0  , Thu Jul 16 12:11:02 2020


      OrdInt status: non-squared


      Cartesian coordinates in Angstrom:
      -----------------------------------------------------
      No.  Label        X            Y            Z        
      -----------------------------------------------------
       1   N1         0.00000000   0.00000000   0.54981512
       2   X1         0.00000000   0.00000000   0.00000000
       3   N1         0.00000000   0.00000000  -0.54981512
      -----------------------------------------------------
      Nuclear repulsion energy =   23.58036574

++    Wave function specifications:
      -----------------------------

      Number of closed shell electrons          10
      Number of electrons in active shells       5
      Max number of holes in RAS1 space          0
      Max nr of electrons in RAS3 space          0
      Number of inactive orbitals                5
      Number of active orbitals                 10
      Number of secondary orbitals             104
      Spin quantum number                      0.5
      State symmetry                             6
--

++    Orbital specifications:
      -----------------------

      Symmetry species                           1   2   3   4   5   6   7   8
                                                ag b3u b2u b1g b1u b2g b3g  au
      Frozen orbitals                            0   0   0   0   0   0   0   0
      Inactive orbitals                          3   0   0   0   2   0   0   0
      Active orbitals                            0   1   1   0   0   4   4   0
      RAS1 orbitals                              0   0   0   0   0   0   0   0
      RAS2 orbitals                              0   1   1   0   0   4   4   0
      RAS3 orbitals                              0   0   0   0   0   0   0   0
      Secondary orbitals                        25  13  13   8  20  10  10   5
      Deleted orbitals                           0   0   0   0   0   0   0   0
      Number of basis functions                 28  14  14   8  22  14  14   5
--

++    CI expansion specifications:
      ----------------------------

      Number of CSFs                           872
      Number of determinants                  1376
      Number of root(s) required                10
      Root chosen for geometry opt.             10
      CI roots used                              1     2     3     4     5     6     7     8     9    10
      weights                                0.100 0.100 0.100 0.100 0.100 0.100 0.100 0.100 0.100 0.100
      highest root included in the CI           10
      max. size of the explicit Hamiltonian    200
--

++    Optimization specifications:
      ----------------------------

      RASSCF algorithm: Conventional
      Maximum number of macro iterations       200
      Maximum number of SX iterations          100
      Threshold for RASSCF energy            0.100E-07
      Threshold for max MO rotation          0.100E+00
      Threshold for max BLB element          0.100E-03
      Level shift parameter                  0.500E+00
      Make Quasi-Newton update
--

      The MO-coefficients are taken from the file:
      INPORB                                                                                                                          
      Title: RASSCF average (pseudo-natural) orbitals                                      

      Total molecular charge   -1.00

      ************************************************************************************************************************
      *                                                                                                                      *
      *                                            Wave function control section                                             *
      *                                                                                                                      *
      ************************************************************************************************************************


                                         RASSCF iterations: Energy and convergence statistics
                                         ----------------------------------------------------

      Iter CI   SX   CI       RASSCF       Energy    max ROT     max BLB   max BLB  Level Ln srch  Step   QN   Walltime
          iter iter root      energy       change     param      element    value   shift minimum  type update hh:mm:ss
 Nr of preliminary CI iterations:   4
        1   1   38    0  -108.51009897    0.00E+00  -0.26E+00*   1   7 6  0.10E+00*  0.64   0.00    SX    NO    0:00:00
        2   4   21    0  -108.55880091   -0.49E-01*  0.73E-01    1   7 6  0.38E-01*  0.57   0.00    SX    NO    0:00:00
        3   1   23    0  -108.56505075   -0.62E-02*  0.42E-01    1   7 6  0.16E-01*  0.55   0.00    SX    NO    0:00:00
        4   5   22    0  -108.56657695   -0.15E-02* -0.32E-01    1   5 6 -0.80E-02*  0.55   0.00    SX    NO    0:00:00
        5   4   21    0  -108.56704753   -0.47E-03* -0.41E-01    1   5 6 -0.46E-02*  0.55   2.50    LS   YES    0:00:00
        6   5   22    0  -108.56726988   -0.22E-03* -0.20E-01    1   5 7  0.20E-02*  0.55   1.06    QN   YES    0:00:00
        7   3   20    0  -108.56732870   -0.59E-04* -0.28E-01    1   5 7  0.16E-02*  0.55   2.50    LS   YES    0:00:00
        8   5   20    0  -108.56738336   -0.55E-04* -0.33E-01    1   7 7 -0.13E-02*  0.56   2.35    LS   YES    0:00:00
        9   5   22    0  -108.56741043   -0.27E-04* -0.22E-01    1   5 6  0.17E-02*  0.56   1.15    QN   YES    0:00:00
       10   5   22    0  -108.56745083   -0.40E-04* -0.71E-01    1   5 6  0.12E-02*  0.56   2.50    QN   YES    0:00:00
       11   8   22    0  -108.56754455   -0.94E-04*  0.14E+00*   1   7 6  0.98E-03*  0.56   1.79    QN   YES    0:00:00
       12   7   23    0  -108.56762105   -0.77E-04* -0.43E-01    1   7 7  0.18E-02*  0.56   1.00    QN   YES    0:00:00
       13   4   23    0  -108.56767141   -0.50E-04* -0.15E+00*   1   7 7  0.16E-02*  0.56   2.50    QN   YES    0:00:00
       14   5   22    0  -108.56784372   -0.17E-03* -0.10E+00*   1   5 6 -0.10E-02*  0.56   1.99    LS   YES    0:00:00
       15   5   21    0  -108.56789516   -0.51E-04*  0.88E-01    1   7 6 -0.16E-02*  0.56   1.64    QN   YES    0:00:00
       16   5   21    0  -108.56794602   -0.51E-04*  0.94E-01    1   7 6 -0.14E-02*  0.56   2.50    LS   YES    0:00:00
       17   5   22    0  -108.56798456   -0.39E-04*  0.99E-01    2   8 5 -0.11E-02*  0.56   2.50    LS   YES    0:00:00
       18   5   22    0  -108.56801037   -0.26E-04* -0.11E+00*   1   7 2  0.12E-02*  0.56   2.50    QN   YES    0:00:00
       19   5   21    0  -108.56804349   -0.33E-04* -0.10E+00*   1   7 2  0.76E-03*  0.56   2.42    LS   YES    0:00:00
       20   5   21    0  -108.56805851   -0.15E-04*  0.31E-01    1   6 6 -0.45E-03*  0.56   1.44    QN   YES    0:00:00
       21   5   21    0  -108.56806828   -0.98E-05*  0.35E-01    1   7 6  0.34E-03*  0.56   2.28    LS   YES    0:00:00
       22   5   21    0  -108.56807259   -0.43E-05*  0.24E-01    2   8 5  0.40E-03*  0.56   1.10    QN   YES    0:00:00
       23   5   20    0  -108.56807796   -0.54E-05*  0.33E-01    1  12 7  0.37E-03*  0.56   2.50    LS   YES    0:00:00
       24   5   20    0  -108.56808216   -0.42E-05*  0.18E-01    1  12 7  0.46E-03*  0.56   1.67    QN   YES    0:00:00
       25   5   18    0  -108.56808685   -0.47E-05*  0.19E-01    1  12 7  0.36E-03*  0.56   2.09    LS   YES    0:00:00
       26   5   20    0  -108.56808862   -0.18E-05* -0.23E-01    1   7 6 -0.33E-03*  0.56   1.08    QN   YES    0:00:00
       27   5   20    0  -108.56809067   -0.21E-05* -0.29E-01    1  10 7 -0.19E-03*  0.56   2.37    LS   YES    0:00:00
       28   5   19    0  -108.56809169   -0.10E-05* -0.71E-02    1  10 7 -0.22E-03*  0.56   1.09    QN   YES    0:00:00
       29   4   18    0  -108.56809253   -0.83E-06* -0.32E-01    1  10 7 -0.14E-03*  0.56   2.50    QN   YES    0:00:00
       30   5   18    0  -108.56809442   -0.19E-05* -0.15E-01    2  10 5  0.17E-03*  0.56   1.33    QN   YES    0:00:00
       31   5   18    0  -108.56809499   -0.56E-06* -0.20E-01    2  10 5  0.15E-03*  0.56   2.20    QN   YES    0:00:00
       32   5   18    0  -108.56809567   -0.68E-06* -0.15E-01    1  10 7  0.87E-04   0.56   1.73    QN   YES    0:00:00
       33   5   18    0  -108.56809615   -0.48E-06* -0.11E-01    1   6 6  0.64E-04   0.56   1.80    QN   YES    0:00:00
       34   5   17    0  -108.56809650   -0.35E-06* -0.62E-02    2  10 5 -0.94E-04   0.56   1.62    QN   YES    0:00:00
       35   4   16    0  -108.56809667   -0.17E-06*  0.21E-02    3  12 1  0.70E-04   0.56   1.49    QN   YES    0:00:00
       36   3   15    0  -108.56809673   -0.62E-07*  0.16E-02    3   9 1  0.33E-04   0.56   1.43    QN   YES    0:00:00
       37   2   14    0  -108.56809675   -0.21E-07*  0.76E-03    1   7 7  0.13E-04   0.56   1.52    QN   YES    0:00:00
       38   2   12    0  -108.56809676   -0.11E-07* -0.69E-03    2  10 5  0.19E-04   0.56   1.59    QN   YES    0:00:00
       39   2   12    0  -108.56809677   -0.66E-08  -0.75E-03    3  12 1 -0.16E-04   0.56   1.47    QN   YES    0:00:00
      Convergence after 39 iterations
       40   2   12    0  -108.56809677   -0.33E-08  -0.75E-03    3   9 1 -0.10E-04   0.56   1.47    QN   YES    0:00:00

      ************************************************************************************************************************
                                                      Wave function printout:
                       occupation of active orbitals, and spin coupling of open shells (u,d: Spin up or down)
      ************************************************************************************************************************

      Note: transformation to natural orbitals
      has been made, which may change the order of the CSFs.

      printout of CI-coefficients larger than  0.05 for root  1
      energy=    -109.019596
      conf/sym  2 3 6666 7777     Coeff  Weight
             1  2 2 u000 0000  -0.12754 0.01627
             2  2 2 0u00 0000  -0.95849 0.91870
             4  0 2 2u00 0000   0.13369 0.01787
            46  u d ud00 u000   0.05613 0.00315
            91  u d uu00 d000  -0.09922 0.00984
            95  u u du00 d000   0.08155 0.00665
           170  2 0 0u00 2000  -0.13116 0.01720

      printout of CI-coefficients larger than  0.05 for root  2
      energy=    -108.940575
      conf/sym  2 3 6666 7777     Coeff  Weight
             1  2 2 u000 0000   0.39878 0.15902
             2  2 2 0u00 0000  -0.06237 0.00389
             7  2 2 00u0 0000   0.86918 0.75547
             9  0 2 20u0 0000  -0.12494 0.01561
            23  2 2 000u 0000  -0.13939 0.01943
           107  u d u0u0 d000   0.09268 0.00859
           111  u u d0u0 d000  -0.07457 0.00556
           136  2 0 u000 2000   0.05744 0.00330
           238  2 0 00u0 2000   0.11870 0.01409

      printout of CI-coefficients larger than  0.05 for root  3
      energy=    -108.864187
      conf/sym  2 3 6666 7777     Coeff  Weight
             1  2 2 u000 0000  -0.76224 0.58101
             2  2 2 0u00 0000   0.09886 0.00977
             7  2 2 00u0 0000   0.26350 0.06943
            23  2 2 000u 0000  -0.53714 0.28852
            25  0 2 200u 0000   0.08113 0.00658
            42  u d 2000 u000   0.07000 0.00490
            87  u u 2000 d000   0.07638 0.00583
           136  2 0 u000 2000  -0.11172 0.01248
           374  u d u00u d000  -0.06007 0.00361
           421  2 0 000u 2000  -0.07305 0.00534

      printout of CI-coefficients larger than  0.05 for root  4
      energy=    -108.737555
      conf/sym  2 3 6666 7777     Coeff  Weight
             1  2 2 u000 0000   0.44879 0.20141
             2  2 2 0u00 0000  -0.05264 0.00277
             7  2 2 00u0 0000  -0.33189 0.11015
            23  2 2 000u 0000  -0.79197 0.62722
            25  0 2 200u 0000   0.10549 0.01113
            87  u u 2000 d000  -0.05293 0.00280
           136  2 0 u000 2000   0.06799 0.00462
           374  u d u00u d000  -0.07848 0.00616
           382  u u d00u d000   0.06646 0.00442
           421  2 0 000u 2000  -0.10859 0.01179

      printout of CI-coefficients larger than  0.05 for root  5
      energy=    -108.391092
      conf/sym  2 3 6666 7777     Coeff  Weight
            46  u d ud00 u000   0.13933 0.01941
            50  u u dd00 u000   0.09406 0.00885
            87  u u 2000 d000  -0.08036 0.00646
            88  u u 2000 0d00  -0.48626 0.23644
            91  u d uu00 d000   0.05219 0.00272
            99  u u ud00 d000  -0.12166 0.01480
           136  2 0 u000 2000  -0.07795 0.00608
           138  2 0 u000 ud00  -0.46832 0.21932
           153  0 2 u000 2000   0.07288 0.00531
           155  0 2 u000 ud00   0.47331 0.22402
           659  u u 0000 2d00   0.49696 0.24697

      printout of CI-coefficients larger than  0.05 for root  6
      energy=    -108.390303
      conf/sym  2 3 6666 7777     Coeff  Weight
            42  u d 2000 u000   0.09561 0.00914
            46  u d ud00 u000   0.58873 0.34660
            50  u u dd00 u000   0.36088 0.13024
            88  u u 2000 0d00   0.10791 0.01164
            91  u d uu00 d000   0.31960 0.10215
            95  u u du00 d000   0.18010 0.03244
            99  u u ud00 d000  -0.56736 0.32190
           138  2 0 u000 ud00   0.10195 0.01039
           155  0 2 u000 ud00  -0.11003 0.01211
           659  u u 0000 2d00  -0.11589 0.01343

      printout of CI-coefficients larger than  0.05 for root  7
      energy=    -108.385116
      conf/sym  2 3 6666 7777     Coeff  Weight
             2  2 2 0u00 0000   0.08700 0.00757
             3  2 0 2u00 0000  -0.13969 0.01951
             4  0 2 2u00 0000   0.35707 0.12750
            46  u d ud00 u000   0.21094 0.04450
            50  u u dd00 u000   0.31387 0.09852
            87  u u 2000 d000  -0.05009 0.00251
            91  u d uu00 d000  -0.44222 0.19555
            95  u u du00 d000  -0.58563 0.34297
           170  2 0 0u00 2000  -0.35605 0.12677
           187  0 2 0u00 2000   0.14448 0.02087

      printout of CI-coefficients larger than  0.05 for root  8
      energy=    -108.318341
      conf/sym  2 3 6666 7777     Coeff  Weight
            42  u d 2000 u000   0.05379 0.00289
            58  u d u0d0 u000   0.09557 0.00913
            62  u u d0d0 u000   0.06735 0.00454
            87  u u 2000 d000  -0.10186 0.01037
            88  u u 2000 0d00  -0.50297 0.25298
            91  u d uu00 d000  -0.06095 0.00372
           123  u u u0d0 d000  -0.08109 0.00658
           136  2 0 u000 2000  -0.08032 0.00645
           138  2 0 u000 ud00  -0.46021 0.21179
           153  0 2 u000 2000  -0.07145 0.00510
           155  0 2 u000 ud00  -0.45262 0.20487
           659  u u 0000 2d00  -0.50746 0.25752

      printout of CI-coefficients larger than  0.05 for root  9
      energy=    -108.317484
      conf/sym  2 3 6666 7777     Coeff  Weight
             3  2 0 2u00 0000  -0.23665 0.05600
             4  0 2 2u00 0000   0.24749 0.06125
            42  u d 2000 u000  -0.10899 0.01188
            43  u d 2000 0u00  -0.33294 0.11085
            46  u d ud00 u000  -0.24192 0.05852
            58  u d u0d0 u000  -0.05392 0.00291
            88  u u 2000 0d00  -0.07331 0.00537
            91  u d uu00 d000   0.43735 0.19127
           136  2 0 u000 2000  -0.07562 0.00572
           137  2 0 u000 du00  -0.33697 0.11355
           138  2 0 u000 ud00  -0.06313 0.00399
           153  0 2 u000 2000   0.05728 0.00328
           154  0 2 u000 du00   0.33110 0.10963
           155  0 2 u000 ud00  -0.07416 0.00550
           170  2 0 0u00 2000  -0.24635 0.06069
           187  0 2 0u00 2000   0.26294 0.06914
           551  u d 0000 2u00   0.33786 0.11415
           659  u u 0000 2d00  -0.07919 0.00627

      printout of CI-coefficients larger than  0.05 for root 10
      energy=    -108.316719
      conf/sym  2 3 6666 7777     Coeff  Weight
             3  2 0 2u00 0000  -0.23547 0.05545
             4  0 2 2u00 0000   0.24082 0.05799
            43  u d 2000 0u00   0.35717 0.12757
            46  u d ud00 u000  -0.24454 0.05980
            91  u d uu00 d000   0.42268 0.17866
           137  2 0 u000 du00   0.35982 0.12947
           154  0 2 u000 du00  -0.36114 0.13042
           170  2 0 0u00 2000  -0.24122 0.05819
           187  0 2 0u00 2000   0.25130 0.06315
           551  u d 0000 2u00  -0.36757 0.13511

      Natural orbitals and occupation numbers for root  1
      sym 2:   1.934022
      sym 3:   1.932164
      sym 6:   0.065780   1.000101   0.000000   0.000011
      sym 7:   0.067631   0.000000   0.000127   0.000164

      Natural orbitals and occupation numbers for root  2
      sym 2:   1.939260
      sym 3:   1.932780
      sym 6:   0.057019   0.000000   1.003537   0.000010
      sym 7:   0.067076   0.000000   0.000128   0.000190

      Natural orbitals and occupation numbers for root  3
      sym 2:   1.960981
      sym 3:   1.934813
      sym 6:   1.014480   0.000000   0.000023   0.024009
      sym 7:   0.065280   0.000000   0.000122   0.000291

      Natural orbitals and occupation numbers for root  4
      sym 2:   1.947161
      sym 3:   1.933170
      sym 6:   0.043737   0.000000   0.000005   1.008804
      sym 7:   0.066726   0.000000   0.000125   0.000272

      Natural orbitals and occupation numbers for root  5
      sym 2:   0.995952
      sym 3:   1.003895
      sym 6:   0.994587   0.048681   0.000368   0.000010
      sym 7:   1.051564   0.903377   0.000088   0.001477

      Natural orbitals and occupation numbers for root  6
      sym 2:   0.998120
      sym 3:   1.001792
      sym 6:   1.038984   0.910287   0.000562   0.000009
      sym 7:   1.001876   0.047664   0.000082   0.000624

      Natural orbitals and occupation numbers for root  7
      sym 2:   1.005766
      sym 3:   1.005848
      sym 6:   1.024108   0.963868   0.000338   0.000015
      sym 7:   0.996649   0.002182   0.000192   0.001033

      Natural orbitals and occupation numbers for root  8
      sym 2:   1.008603
      sym 3:   0.991123
      sym 6:   1.006092   0.009460   0.022762   0.000508
      sym 7:   1.070791   0.887439   0.000061   0.003161

      Natural orbitals and occupation numbers for root  9
      sym 2:   0.991402
      sym 3:   1.008343
      sym 6:   0.993410   0.500611   0.006612   0.000170
      sym 7:   1.023044   0.474585   0.000375   0.001448

      Natural orbitals and occupation numbers for root 10
      sym 2:   0.991371
      sym 3:   1.008376
      sym 6:   0.983457   0.475083   0.000295   0.000002
      sym 7:   1.014771   0.524911   0.000381   0.001354

      ************************************************************************************************************************
      *                                                                                                                      *
      *                                                    Final results                                                     *
      *                                                                                                                      *
      ************************************************************************************************************************


++    Wave function specifications:
      -----------------------------

      Number of closed shell electrons          10
      Number of electrons in active shells       5
      Max number of holes in RAS1 space          0
      Max nr of electrons in RAS3 space          0
      Number of inactive orbitals                5
      Number of active orbitals                 10
      Number of secondary orbitals             104
      Spin quantum number                      0.5
      State symmetry                             6
--

++    Orbital specifications:
      -----------------------

      Symmetry species                           1   2   3   4   5   6   7   8
                                                ag b3u b2u b1g b1u b2g b3g  au
      Frozen orbitals                            0   0   0   0   0   0   0   0
      Inactive orbitals                          3   0   0   0   2   0   0   0
      Active orbitals                            0   1   1   0   0   4   4   0
      RAS1 orbitals                              0   0   0   0   0   0   0   0
      RAS2 orbitals                              0   1   1   0   0   4   4   0
      RAS3 orbitals                              0   0   0   0   0   0   0   0
      Secondary orbitals                        25  13  13   8  20  10  10   5
      Deleted orbitals                           0   0   0   0   0   0   0   0
      Number of basis functions                 28  14  14   8  22  14  14   5
--

++    CI expansion specifications:
      ----------------------------

      Number of CSFs                           872
      Number of determinants                  1376
      Number of root(s) required                10
      CI roots used                              1     2     3     4     5     6     7     8     9    10
      weights                                0.100 0.100 0.100 0.100 0.100 0.100 0.100 0.100 0.100 0.100
      highest root included in the CI           10
      Root passed to geometry opt.              10
--

++    Final optimization conditions:
      ------------------------------

      Average CI energy                            -108.56809677
      RASSCF energy for state 10                   -108.31671938
      Super-CI energy                                -0.00000000
      RASSCF energy change                            0.00000000
      Max change in MO coefficients              -0.257E-01
      Max non-diagonal density matrix element    -0.749E-03
      Maximum BLB matrix element                 -0.103E-04
      (orbital pair   3,   9 in symmetry   1)
      Norm of electronic gradient            0.108E+00
--


      Final state energy(ies):
      ------------------------

::    RASSCF root number  1 Total energy:   -109.01959620
::    RASSCF root number  2 Total energy:   -108.94057453
::    RASSCF root number  3 Total energy:   -108.86418715
::    RASSCF root number  4 Total energy:   -108.73755506
::    RASSCF root number  5 Total energy:   -108.39109182
::    RASSCF root number  6 Total energy:   -108.39030273
::    RASSCF root number  7 Total energy:   -108.38511575
::    RASSCF root number  8 Total energy:   -108.31834117
::    RASSCF root number  9 Total energy:   -108.31748395
::    RASSCF root number 10 Total energy:   -108.31671938

++    Molecular orbitals:
      -------------------

      Pseudonatural active orbitals and approximate occupation numbers




      Molecular orbitals for symmetry species 1: ag 


      Orbital                 1         2         3         4         5         6         7
      Energy           -15.5190   -1.3507   -0.4894    0.0752    0.1244    0.1318    0.1339
      Occ. No.           2.0000    2.0000    2.0000    0.0000    0.0000    0.0000    0.0000

     1 N1     1s         0.9995   -0.0246    0.0065   -0.0013    0.0009    0.0120   -0.0049
     2 N1     1s         0.0023    0.8884    0.3479   -0.0137   -0.0517    0.0469   -0.0261
     3 N1     1s         0.0024   -0.0080   -0.0017    0.0010   -0.0016    0.0058   -0.0026
     4 N1     1s         0.0015   -0.1810    0.2387    0.0168   -0.0451    0.5417   -0.2277
     5 N1     1s         0.0028    0.0162    0.1583   -3.1224    5.6863    6.2186   -2.0116
     6 N1     2pz       -0.0098   -0.5034    0.9578   -0.0125   -0.0603   -0.0012   -0.0072
     7 N1     2pz        0.0054    0.0502   -0.0616    0.0047   -0.0056   -0.0309    0.0122
     8 N1     2pz        0.0064    0.1905   -0.1027   -0.0284    0.0596    0.2885   -0.1129
     9 N1     2pz        0.0107    0.0949    0.1943   -3.3027    6.1813    9.3942   -3.2662
    10 N1     3d0        0.0009    0.0319   -0.0296   -0.0006    0.0023    0.0017   -0.0004
    11 N1     3d0       -0.0019    0.0284   -0.0333    0.0049   -0.0096   -0.0133    0.0045
    12 N1     3d0       -0.0006   -0.0365    0.0018   -0.0571    0.0866   -0.2092    0.0940
    13 N1     3d2+       0.0000   -0.0000    0.0001    0.0000    0.0002   -0.0009   -0.0023
    14 N1     3d2+       0.0000   -0.0002   -0.0000   -0.0003   -0.0018    0.0076    0.0187
    15 N1     3d2+      -0.0000    0.0000   -0.0002    0.0021    0.0105   -0.0463   -0.1146
    16 N1     4f0        0.0003   -0.0127    0.0091   -0.0014    0.0020   -0.0004    0.0004
    17 N1     4f0        0.0008    0.0048   -0.0031    0.0042   -0.0048    0.0225   -0.0097
    18 N1     4f2+       0.0000    0.0001   -0.0001   -0.0000   -0.0000    0.0001    0.0002
    19 N1     4f2+       0.0000    0.0001   -0.0001   -0.0000   -0.0000    0.0002    0.0006
    20 X1     1s        -0.0038   -0.0261   -0.1337    5.9157  -10.7077   -7.8032    2.1704
    21 X1     1s        -0.0002   -0.0037    0.0282   -5.6317    8.3162    1.8928    0.0408
    22 X1     1s         0.0002    0.0017   -0.0055    3.6473   -2.9801   -0.2507   -0.1715
    23 X1     3d0       -0.0024    0.0047   -0.0509    0.4519   -0.8263   -0.6910    0.2050
    24 X1     3d0       -0.0026   -0.0334   -0.0399    1.1647   -2.2285   -4.1991    1.5085
    25 X1     3d0        0.0003    0.0053    0.0020   -0.2708    0.4664    2.0273   -0.7836
    26 X1     3d2+       0.0000   -0.0001   -0.0000   -0.0085   -0.0465    0.2010    0.4975
    27 X1     3d2+      -0.0000    0.0000   -0.0000    0.0174    0.1053   -0.4456   -1.1026
    28 X1     3d2+       0.0000   -0.0000    0.0000   -0.0225   -0.1657    0.6285    1.5440



      Molecular orbitals for symmetry species 2: b3u


      Orbital                 1         2         3
      Energy             0.0000    0.0687    0.1172
      Occ. No.           1.3773    0.0000    0.0000

     1 N1     2px        0.9196    0.0004    0.0370
     2 N1     2px       -0.0138   -0.0105   -0.0182
     3 N1     2px       -0.0737    0.0391    0.0724
     4 N1     2px       -0.0085   -0.2758   -0.5021
     5 N1     3d1+      -0.0266    0.0001   -0.0011
     6 N1     3d1+      -0.0427   -0.0001   -0.0036
     7 N1     3d1+      -0.0001    0.0059    0.0114
     8 N1     4f1+       0.0106    0.0005    0.0014
     9 N1     4f1+      -0.0004   -0.0015   -0.0028
    10 N1     4f3+      -0.0003    0.0000   -0.0000
    11 N1     4f3+      -0.0004   -0.0000    0.0000
    12 X1     2px        0.0276    1.2335    2.3240
    13 X1     2px       -0.0180   -2.4133   -3.8763
    14 X1     2px        0.0059    2.3009    1.6447



      Molecular orbitals for symmetry species 3: b2u


      Orbital                 1         2         3
      Energy             0.0000    0.0679    0.1157
      Occ. No.           1.3752    0.0000    0.0000

     1 N1     2py        0.9219    0.0003    0.0367
     2 N1     2py       -0.0148   -0.0104   -0.0178
     3 N1     2py       -0.0768    0.0388    0.0718
     4 N1     2py       -0.0083   -0.2740   -0.4967
     5 N1     3d1-      -0.0270    0.0001   -0.0011
     6 N1     3d1-      -0.0444   -0.0001   -0.0037
     7 N1     3d1-      -0.0015    0.0057    0.0119
     8 N1     4f3-      -0.0003    0.0000   -0.0000
     9 N1     4f3-      -0.0005   -0.0000    0.0000
    10 N1     4f1-       0.0105    0.0005    0.0014
    11 N1     4f1-      -0.0004   -0.0015   -0.0029
    12 X1     2py        0.0272    1.2246    2.3087
    13 X1     2py       -0.0178   -2.3976   -3.8706
    14 X1     2py        0.0058    2.2941    1.6494



      Molecular orbitals for symmetry species 4: b1g


      Orbital                 1
      Energy             0.1335
      Occ. No.           0.0000

     1 N1     3d2-      -0.0025
     2 N1     3d2-       0.0202
     3 N1     3d2-      -0.1240
     4 N1     4f2-       0.0003
     5 N1     4f2-       0.0006
     6 X1     3d2-       0.5385
     7 X1     3d2-      -1.1936
     8 X1     3d2-       1.6752



      Molecular orbitals for symmetry species 5: b1u


      Orbital                 1         2         3         4
      Energy           -15.5161   -0.6454    0.0693    0.1184
      Occ. No.           2.0000    2.0000    0.0000    0.0000

     1 N1     1s         0.9986    0.0058   -0.0012    0.0016
     2 N1     1s        -0.0029    0.9310   -0.0079   -0.0251
     3 N1     1s         0.0018   -0.0046    0.0010   -0.0025
     4 N1     1s         0.0242    0.3723    0.1955   -0.0916
     5 N1     1s         0.0072    0.1394    2.8465   -4.1366
     6 N1     2pz       -0.0067    0.4247   -0.0002   -0.0125
     7 N1     2pz        0.0034   -0.0371   -0.0045   -0.0019
     8 N1     2pz       -0.0082   -0.1751   -0.0941    0.0109
     9 N1     2pz       -0.0016   -0.0206   -1.2933    2.0406
    10 N1     3d0        0.0009   -0.0074    0.0003    0.0002
    11 N1     3d0        0.0007   -0.0103   -0.0012    0.0118
    12 N1     3d0        0.0017    0.0168    0.0510   -0.0575
    13 N1     3d2+       0.0000    0.0001   -0.0000   -0.0000
    14 N1     3d2+       0.0000    0.0002   -0.0000    0.0000
    15 N1     3d2+      -0.0000    0.0001   -0.0001   -0.0002
    16 N1     4f0       -0.0008   -0.0003    0.0008   -0.0019
    17 N1     4f0        0.0001    0.0012   -0.0059    0.0083
    18 N1     4f2+       0.0000   -0.0001   -0.0000   -0.0000
    19 N1     4f2+      -0.0000   -0.0001    0.0000    0.0000
    20 X1     2pz        0.0003    0.0067    1.8640   -3.3662
    21 X1     2pz       -0.0001   -0.0034   -2.7520    4.3744
    22 X1     2pz        0.0000    0.0011    2.4029   -1.7539



      Molecular orbitals for symmetry species 6: b2g


      Orbital                 1         2         3         4
      Energy             0.0000    0.0000    0.0000    0.0000
      Occ. No.           0.7186    0.3976    0.1033    0.1003

     1 N1     2px        1.0766   -0.1004   -0.1930   -0.1922
     2 N1     2px        0.0184    0.0113   -0.0204    0.0257
     3 N1     2px        0.3145    0.4981   -0.6223    2.0929
     4 N1     2px        0.9069   12.3113  -13.7774   63.9807
     5 N1     3d1+       0.0084    0.0016   -0.0035    0.0099
     6 N1     3d1+       0.0094   -0.0477    0.0472   -0.2165
     7 N1     3d1+      -0.0523   -0.2018    0.2606   -0.5115
     8 N1     4f1+      -0.0067    0.0017    0.0013    0.0111
     9 N1     4f1+      -0.0041    0.0311   -0.0329    0.1140
    10 N1     4f3+      -0.0001   -0.0001    0.0002    0.0002
    11 N1     4f3+       0.0000   -0.0001   -0.0002   -0.0001
    12 X1     3d1+      -0.0454   -0.8268    0.6551   -5.6021
    13 X1     3d1+      -0.2472   -4.3347    5.9101  -17.1896
    14 X1     3d1+       0.1009    2.1226   -1.6824    2.4640



      Molecular orbitals for symmetry species 7: b3g


      Orbital                 1         2         3         4
      Energy             0.0000    0.0000    0.0000    0.0000
      Occ. No.           0.6309    0.2944    0.0002    0.0022

     1 N1     2py        1.0925   -0.1187   -0.0489   -1.3829
     2 N1     2py        0.0185    0.0113    0.0378    0.1481
     3 N1     2py        0.3199    0.4965    0.0990    1.4145
     4 N1     2py        1.3127   12.1143    0.2513   -0.4496
     5 N1     3d1-       0.0071    0.0017   -0.0037    0.0291
     6 N1     3d1-       0.0010   -0.0460   -0.0122    0.3254
     7 N1     3d1-      -0.0618   -0.2017   -0.0145    0.1239
     8 N1     4f3-      -0.0001   -0.0001   -0.7481    0.0217
     9 N1     4f3-      -0.0001   -0.0001   -0.5762   -0.0121
    10 N1     4f1-      -0.0066    0.0017    0.0040    0.0275
    11 N1     4f1-      -0.0020    0.0307    0.0020   -0.1138
    12 X1     3d1-      -0.0826   -0.8042   -0.0515    0.1739
    13 X1     3d1-      -0.3685   -4.2774   -0.0492    0.3360
    14 X1     3d1-       0.1365    2.1104    0.0044   -0.2331
--

      Von Neumann Entropy (Root  1) =  0.92422


      Mulliken population analysis for root number:  1
      -----------------------------------------------


++    Molecular charges:
      ------------------

      Mulliken charges per centre and basis function type
      ---------------------------------------------------

                N1      X1    
      1s       4.1048 -0.1107
      2px      1.7866  0.0076
      2pz      0.9600  0.0026
      2py      0.9722  0.0074
      3d2+     0.0000  0.0000
      3d1+     0.0084 -0.6018
      3d0      0.0056 -0.0377
      3d1-     0.0230 -0.0014
      3d2-     0.0000  0.0000
      4f3+     0.0000  0.0000
      4f2+     0.0000  0.0000
      4f1+     0.0020  0.0000
      4f0      0.0026  0.0000
      4f1-     0.0018  0.0000
      4f2-     0.0000  0.0000
      4f3-     0.0001  0.0000
      Total    7.8670 -0.7339

      N-E     -0.8670  0.7339

      Total electronic charge=   15.000000

      Total            charge=   -1.000000
--



      Expectation values of various properties for root number:  1
      -----------------------------------------------------------


++    Molecular properties:
      ---------------------

      Charge (e):
                      =   -1.0000
      Dipole Moment (Debye):
      Origin of the operator (Ang)=    0.0000    0.0000    0.0000
                   X=  0.0000E+00               Y=  0.0000E+00               Z=  0.0000E+00           Total=  0.0000E+00
      Center of Charge (Ang)
                     X=   -0.00000000               Y=   -0.00000000               Z=   -0.00000000
      Quadrupole Moment (Debye*Ang):
      Origin of the operator (Ang)=    0.0000    0.0000    0.0000
                  XX= -8.7783E+01              XY=  0.0000E+00              XZ=  0.0000E+00              YY= -3.6102E+01
                  YZ=  0.0000E+00              ZZ= -9.2461E+01
      In traceless form (Debye*Ang)
                  XX= -2.3502E+01              XY=  0.0000E+00              XZ=  0.0000E+00              YY=  5.4020E+01
                  YZ=  0.0000E+00              ZZ= -3.0518E+01
--


      Mulliken spin population analysis for root number:  1
      ---------------------------------------------------


++    Molecular charges:
      ------------------

      Mulliken spin population per centre and basis function type
      ---------------------------------------------------

                N1      X1    
      1s       0.0000  0.0000
      2px      0.8245  0.0000
      2pz      0.0000  0.0000
      2py      0.0000 -0.0000
      3d2+     0.0000  0.0000
      3d1+    -0.0153 -0.6177
      3d0      0.0000  0.0000
      3d1-    -0.0000 -0.0000
      3d2-     0.0000  0.0000
      4f3+     0.0000  0.0000
      4f2+     0.0000  0.0000
      4f1+    -0.0003  0.0000
      4f0      0.0000  0.0000
      4f1-    -0.0000  0.0000
      4f2-     0.0000  0.0000
      4f3-     0.0000  0.0000
      Total    0.8088 -0.6177

      Total electronic spin=    1.000000
--


      Von Neumann Entropy (Root  2) =  0.90286


      Mulliken population analysis for root number:  2
      -----------------------------------------------


++    Molecular charges:
      ------------------

      Mulliken charges per centre and basis function type
      ---------------------------------------------------

                N1      X1    
      1s       4.1048 -0.1107
      2px     -1.8384  0.0076
      2pz      0.9600  0.0026
      2py      0.9722  0.0074
      3d2+     0.0000  0.0000
      3d1+     0.1135  6.4289
      3d0      0.0056 -0.0377
      3d1-     0.0230 -0.0014
      3d2-     0.0000  0.0000
      4f3+     0.0000  0.0000
      4f2+     0.0000  0.0000
      4f1+     0.0065  0.0000
      4f0      0.0026  0.0000
      4f1-     0.0018  0.0000
      4f2-     0.0000  0.0000
      4f3-     0.0001  0.0000
      Total    4.3516  6.2968

      N-E      2.6484 -6.2968

      Total electronic charge=   15.000000

      Total            charge=   -1.000000
--



      Expectation values of various properties for root number:  2
      -----------------------------------------------------------


++    Molecular properties:
      ---------------------

      Charge (e):
                      =   -1.0000
      Dipole Moment (Debye):
      Origin of the operator (Ang)=    0.0000    0.0000    0.0000
                   X=  0.0000E+00               Y=  0.0000E+00               Z=  0.0000E+00           Total=  0.0000E+00
      Center of Charge (Ang)
                     X=   -0.00000000               Y=   -0.00000000               Z=   -0.00000000
      Quadrupole Moment (Debye*Ang):
      Origin of the operator (Ang)=    0.0000    0.0000    0.0000
                  XX= -5.7861E+01              XY=  0.0000E+00              XZ=  0.0000E+00              YY= -2.6129E+01
                  YZ=  0.0000E+00              ZZ= -5.5719E+01
      In traceless form (Debye*Ang)
                  XX= -1.6937E+01              XY=  0.0000E+00              XZ=  0.0000E+00              YY=  3.0660E+01
                  YZ=  0.0000E+00              ZZ= -1.3724E+01
--


      Mulliken spin population analysis for root number:  2
      ---------------------------------------------------


++    Molecular charges:
      ------------------

      Mulliken spin population per centre and basis function type
      ---------------------------------------------------

                N1      X1    
      1s       0.0000  0.0000
      2px     -2.8008  0.0000
      2pz      0.0000  0.0000
      2py      0.0001 -0.0000
      3d2+     0.0000  0.0000
      3d1+     0.0897  6.4137
      3d0      0.0000  0.0000
      3d1-    -0.0000 -0.0000
      3d2-     0.0000  0.0000
      4f3+     0.0000  0.0000
      4f2+     0.0000  0.0000
      4f1+     0.0042  0.0000
      4f0      0.0000  0.0000
      4f1-    -0.0000  0.0000
      4f2-     0.0000  0.0000
      4f3-     0.0000  0.0000
      Total   -2.7069  6.4137

      Total electronic spin=    1.000000
--


      Von Neumann Entropy (Root  3) =  0.81148


      Mulliken population analysis for root number:  3
      -----------------------------------------------


++    Molecular charges:
      ------------------

      Mulliken charges per centre and basis function type
      ---------------------------------------------------

                N1      X1    
      1s       4.1048 -0.1107
      2px      2.4657  0.0077
      2pz      0.9600  0.0026
      2py      0.9721  0.0075
      3d2+     0.0000  0.0000
      3d1+    -0.1274 -1.6629
      3d0      0.0056 -0.0377
      3d1-     0.0232 -0.0014
      3d2-     0.0000  0.0000
      4f3+     0.0000  0.0000
      4f2+     0.0000  0.0000
      4f1+    -0.0110  0.0000
      4f0      0.0026  0.0000
      4f1-     0.0018  0.0000
      4f2-     0.0000  0.0000
      4f3-     0.0001  0.0000
      Total    8.3974 -1.7949

      N-E     -1.3974  1.7949

      Total electronic charge=   15.000000

      Total            charge=   -1.000000
--



      Expectation values of various properties for root number:  3
      -----------------------------------------------------------


++    Molecular properties:
      ---------------------

      Charge (e):
                      =   -1.0000
      Dipole Moment (Debye):
      Origin of the operator (Ang)=    0.0000    0.0000    0.0000
                   X=  0.0000E+00               Y=  0.0000E+00               Z=  0.0000E+00           Total=  0.0000E+00
      Center of Charge (Ang)
                     X=   -0.00000000               Y=   -0.00000000               Z=   -0.00000000
      Quadrupole Moment (Debye*Ang):
      Origin of the operator (Ang)=    0.0000    0.0000    0.0000
                  XX= -3.8351E+01              XY=  0.0000E+00              XZ=  0.0000E+00              YY= -1.9633E+01
                  YZ=  0.0000E+00              ZZ= -3.6204E+01
      In traceless form (Debye*Ang)
                  XX= -1.0432E+01              XY=  0.0000E+00              XZ=  0.0000E+00              YY=  1.7644E+01
                  YZ=  0.0000E+00              ZZ= -7.2123E+00
--


      Mulliken spin population analysis for root number:  3
      ---------------------------------------------------


++    Molecular charges:
      ------------------

      Mulliken spin population per centre and basis function type
      ---------------------------------------------------

                N1      X1    
      1s       0.0000  0.0000
      2px      1.5014  0.0000
      2pz      0.0000  0.0000
      2py      0.0005 -0.0000
      3d2+     0.0000  0.0000
      3d1+    -0.1514 -1.6742
      3d0      0.0000  0.0000
      3d1-    -0.0001 -0.0001
      3d2-     0.0000  0.0000
      4f3+     0.0000  0.0000
      4f2+     0.0000  0.0000
      4f1+    -0.0133  0.0000
      4f0      0.0000  0.0000
      4f1-    -0.0000  0.0000
      4f2-     0.0000  0.0000
      4f3-     0.0000  0.0000
      Total    1.3371 -1.6743

      Total electronic spin=    1.000000
--


      Von Neumann Entropy (Root  4) =  0.86996


      Mulliken population analysis for root number:  4
      -----------------------------------------------


++    Molecular charges:
      ------------------

      Mulliken charges per centre and basis function type
      ---------------------------------------------------

                N1      X1    
      1s       4.1048 -0.1107
      2px      4.0475  0.0077
      2pz      0.9600  0.0026
      2py      0.9721  0.0075
      3d2+     0.0000  0.0000
      3d1+     0.0300 -5.2023
      3d0      0.0056 -0.0377
      3d1-     0.0232 -0.0014
      3d2-     0.0000  0.0000
      4f3+     0.0000  0.0000
      4f2+     0.0000  0.0000
      4f1+     0.0197  0.0000
      4f0      0.0026  0.0000
      4f1-     0.0018  0.0000
      4f2-     0.0000  0.0000
      4f3-     0.0001  0.0000
      Total   10.1672 -5.3344

      N-E     -3.1672  5.3344

      Total electronic charge=   15.000000

      Total            charge=   -1.000000
--



      Expectation values of various properties for root number:  4
      -----------------------------------------------------------


++    Molecular properties:
      ---------------------

      Charge (e):
                      =   -1.0000
      Dipole Moment (Debye):
      Origin of the operator (Ang)=    0.0000    0.0000    0.0000
                   X=  0.0000E+00               Y=  0.0000E+00               Z=  0.0000E+00           Total=  0.0000E+00
      Center of Charge (Ang)
                     X=   -0.00000000               Y=   -0.00000000               Z=   -0.00000000
      Quadrupole Moment (Debye*Ang):
      Origin of the operator (Ang)=    0.0000    0.0000    0.0000
                  XX= -3.7117E+01              XY=  0.0000E+00              XZ=  0.0000E+00              YY= -1.9219E+01
                  YZ=  0.0000E+00              ZZ= -3.8463E+01
      In traceless form (Debye*Ang)
                  XX= -8.2758E+00              XY=  0.0000E+00              XZ=  0.0000E+00              YY=  1.8571E+01
                  YZ=  0.0000E+00              ZZ= -1.0295E+01
--


      Mulliken spin population analysis for root number:  4
      ---------------------------------------------------


++    Molecular charges:
      ------------------

      Mulliken spin population per centre and basis function type
      ---------------------------------------------------

                N1      X1    
      1s       0.0000  0.0000
      2px      3.0842  0.0000
      2pz      0.0000  0.0000
      2py      0.0002 -0.0000
      3d2+     0.0000  0.0000
      3d1+     0.0062 -5.2157
      3d0      0.0000  0.0000
      3d1-    -0.0001 -0.0000
      3d2-     0.0000  0.0000
      4f3+     0.0000  0.0000
      4f2+     0.0000  0.0000
      4f1+     0.0174  0.0000
      4f0      0.0000  0.0000
      4f1-    -0.0000  0.0000
      4f2-     0.0000  0.0000
      4f3-     0.0000  0.0000
      Total    3.1078 -5.2157

      Total electronic spin=    1.000000
--


      Von Neumann Entropy (Root  5) =  2.64793


      Mulliken population analysis for root number:  5
      -----------------------------------------------


++    Molecular charges:
      ------------------

      Mulliken charges per centre and basis function type
      ---------------------------------------------------

                N1      X1    
      1s       4.1048 -0.1107
      2px      1.0439  0.0039
      2pz      0.9600  0.0026
      2py      1.7766  0.0039
      3d2+     0.0000  0.0000
      3d1+    -0.0005 -0.0579
      3d0      0.0056 -0.0377
      3d1-    -0.0161 -0.5704
      3d2-     0.0000  0.0000
      4f3+     0.0000  0.0000
      4f2+     0.0000  0.0000
      4f1+     0.0034  0.0000
      4f0      0.0026  0.0000
      4f1-     0.0028  0.0000
      4f2-     0.0000  0.0000
      4f3-     0.0001  0.0000
      Total    7.8831 -0.7663

      N-E     -0.8831  0.7663

      Total electronic charge=   15.000000

      Total            charge=   -1.000000
--



      Expectation values of various properties for root number:  5
      -----------------------------------------------------------


++    Molecular properties:
      ---------------------

      Charge (e):
                      =   -1.0000
      Dipole Moment (Debye):
      Origin of the operator (Ang)=    0.0000    0.0000    0.0000
                   X=  0.0000E+00               Y=  0.0000E+00               Z=  0.0000E+00           Total=  0.0000E+00
      Center of Charge (Ang)
                     X=   -0.00000000               Y=   -0.00000000               Z=   -0.00000000
      Quadrupole Moment (Debye*Ang):
      Origin of the operator (Ang)=    0.0000    0.0000    0.0000
                  XX= -3.8923E+01              XY=  0.0000E+00              XZ=  0.0000E+00              YY= -8.5772E+01
                  YZ=  0.0000E+00              ZZ= -9.5498E+01
      In traceless form (Debye*Ang)
                  XX=  5.1712E+01              XY=  0.0000E+00              XZ=  0.0000E+00              YY= -1.8562E+01
                  YZ=  0.0000E+00              ZZ= -3.3150E+01
--


      Mulliken spin population analysis for root number:  5
      ---------------------------------------------------


++    Molecular charges:
      ------------------

      Mulliken spin population per centre and basis function type
      ---------------------------------------------------

                N1      X1    
      1s       0.0000  0.0000
      2px      0.3100  0.0013
      2pz      0.0000  0.0000
      2py      0.0934  0.0014
      3d2+     0.0000  0.0000
      3d1+     0.0010  0.0123
      3d0      0.0000  0.0000
      3d1-     0.0034  0.1651
      3d2-     0.0000  0.0000
      4f3+     0.0000  0.0000
      4f2+     0.0000  0.0000
      4f1+     0.0012  0.0000
      4f0      0.0000  0.0000
      4f1-     0.0009  0.0000
      4f2-     0.0000  0.0000
      4f3-    -0.0000  0.0000
      Total    0.4100  0.1800

      Total electronic spin=    1.000000
--


      Von Neumann Entropy (Root  6) =  2.64340


      Mulliken population analysis for root number:  6
      -----------------------------------------------


++    Molecular charges:
      ------------------

      Mulliken charges per centre and basis function type
      ---------------------------------------------------

                N1      X1    
      1s       4.1048 -0.1107
      2px      1.7555  0.0039
      2pz      0.9600  0.0026
      2py      1.0544  0.0039
      3d2+     0.0000  0.0000
      3d1+    -0.0119 -0.5497
      3d0      0.0056 -0.0377
      3d1-    -0.0031 -0.0608
      3d2-     0.0000  0.0000
      4f3+     0.0000  0.0000
      4f2+     0.0000  0.0000
      4f1+     0.0033  0.0000
      4f0      0.0026  0.0000
      4f1-     0.0030  0.0000
      4f2-     0.0000  0.0000
      4f3-     0.0001  0.0000
      Total    7.8743 -0.7485

      N-E     -0.8743  0.7485

      Total electronic charge=   15.000000

      Total            charge=   -1.000000
--



      Expectation values of various properties for root number:  6
      -----------------------------------------------------------


++    Molecular properties:
      ---------------------

      Charge (e):
                      =   -1.0000
      Dipole Moment (Debye):
      Origin of the operator (Ang)=    0.0000    0.0000    0.0000
                   X=  0.0000E+00               Y=  0.0000E+00               Z=  0.0000E+00           Total=  0.0000E+00
      Center of Charge (Ang)
                     X=   -0.00000000               Y=   -0.00000000               Z=   -0.00000000
      Quadrupole Moment (Debye*Ang):
      Origin of the operator (Ang)=    0.0000    0.0000    0.0000
                  XX= -8.6041E+01              XY=  0.0000E+00              XZ=  0.0000E+00              YY= -3.8990E+01
                  YZ=  0.0000E+00              ZZ= -9.5774E+01
      In traceless form (Debye*Ang)
                  XX= -1.8659E+01              XY=  0.0000E+00              XZ=  0.0000E+00              YY=  5.1917E+01
                  YZ=  0.0000E+00              ZZ= -3.3258E+01
--


      Mulliken spin population analysis for root number:  6
      ---------------------------------------------------


++    Molecular charges:
      ------------------

      Mulliken spin population per centre and basis function type
      ---------------------------------------------------

                N1      X1    
      1s       0.0000  0.0000
      2px      0.0492  0.0012
      2pz      0.0000  0.0000
      2py      0.3571  0.0014
      3d2+     0.0000  0.0000
      3d1+     0.0049  0.1795
      3d0      0.0000  0.0000
      3d1-    -0.0011 -0.0062
      3d2-     0.0000  0.0000
      4f3+     0.0000  0.0000
      4f2+     0.0000  0.0000
      4f1+     0.0011  0.0000
      4f0      0.0000  0.0000
      4f1-     0.0009  0.0000
      4f2-     0.0000  0.0000
      4f3-    -0.0000  0.0000
      Total    0.4120  0.1759

      Total electronic spin=    1.000000
--


      Von Neumann Entropy (Root  7) =  2.52003


      Mulliken population analysis for root number:  7
      -----------------------------------------------


++    Molecular charges:
      ------------------

      Mulliken charges per centre and basis function type
      ---------------------------------------------------

                N1      X1    
      1s       4.1048 -0.1107
      2px      1.7575  0.0040
      2pz      0.9600  0.0026
      2py      1.0198  0.0039
      3d2+     0.0000  0.0000
      3d1+    -0.0093 -0.5134
      3d0      0.0056 -0.0377
      3d1-    -0.0020 -0.0400
      3d2-     0.0000  0.0000
      4f3+     0.0000  0.0000
      4f2+     0.0000  0.0000
      4f1+     0.0035  0.0000
      4f0      0.0026  0.0000
      4f1-     0.0031  0.0000
      4f2-     0.0000  0.0000
      4f3-     0.0001  0.0000
      Total    7.8457 -0.6914

      N-E     -0.8457  0.6914

      Total electronic charge=   15.000000

      Total            charge=   -1.000000
--



      Expectation values of various properties for root number:  7
      -----------------------------------------------------------


++    Molecular properties:
      ---------------------

      Charge (e):
                      =   -1.0000
      Dipole Moment (Debye):
      Origin of the operator (Ang)=    0.0000    0.0000    0.0000
                   X=  0.0000E+00               Y=  0.0000E+00               Z=  0.0000E+00           Total=  0.0000E+00
      Center of Charge (Ang)
                     X=   -0.00000000               Y=   -0.00000000               Z=   -0.00000000
      Quadrupole Moment (Debye*Ang):
      Origin of the operator (Ang)=    0.0000    0.0000    0.0000
                  XX= -8.8832E+01              XY=  0.0000E+00              XZ=  0.0000E+00              YY= -3.6753E+01
                  YZ=  0.0000E+00              ZZ= -9.6158E+01
      In traceless form (Debye*Ang)
                  XX= -2.2377E+01              XY=  0.0000E+00              XZ=  0.0000E+00              YY=  5.5742E+01
                  YZ=  0.0000E+00              ZZ= -3.3365E+01
--


      Mulliken spin population analysis for root number:  7
      ---------------------------------------------------


++    Molecular charges:
      ------------------

      Mulliken spin population per centre and basis function type
      ---------------------------------------------------

                N1      X1    
      1s       0.0000  0.0000
      2px      0.7936  0.0002
      2pz      0.0000  0.0000
      2py     -0.0357 -0.0001
      3d2+     0.0000  0.0000
      3d1+    -0.0103 -0.4965
      3d0      0.0000  0.0000
      3d1-     0.0001  0.0009
      3d2-     0.0000  0.0000
      4f3+     0.0000  0.0000
      4f2+     0.0000  0.0000
      4f1+     0.0002  0.0000
      4f0      0.0000  0.0000
      4f1-    -0.0001  0.0000
      4f2-     0.0000  0.0000
      4f3-     0.0000  0.0000
      Total    0.7478 -0.4956

      Total electronic spin=    1.000000
--


      Von Neumann Entropy (Root  8) =  2.62959


      Mulliken population analysis for root number:  8
      -----------------------------------------------


++    Molecular charges:
      ------------------

      Mulliken charges per centre and basis function type
      ---------------------------------------------------

                N1      X1    
      1s       4.1048 -0.1107
      2px      0.9709  0.0040
      2pz      0.9600  0.0026
      2py      1.7906  0.0038
      3d2+     0.0000  0.0000
      3d1+     0.0021  0.0906
      3d0      0.0056 -0.0377
      3d1-    -0.0164 -0.6059
      3d2-     0.0000  0.0000
      4f3+     0.0000  0.0000
      4f2+     0.0000  0.0000
      4f1+     0.0034  0.0000
      4f0      0.0026  0.0000
      4f1-     0.0030  0.0000
      4f2-     0.0000  0.0000
      4f3-     0.0000  0.0000
      Total    7.8267 -0.6533

      N-E     -0.8267  0.6533

      Total electronic charge=   15.000000

      Total            charge=   -1.000000
--



      Expectation values of various properties for root number:  8
      -----------------------------------------------------------


++    Molecular properties:
      ---------------------

      Charge (e):
                      =   -1.0000
      Dipole Moment (Debye):
      Origin of the operator (Ang)=    0.0000    0.0000    0.0000
                   X=  0.0000E+00               Y=  0.0000E+00               Z=  0.0000E+00           Total=  0.0000E+00
      Center of Charge (Ang)
                     X=   -0.00000000               Y=   -0.00000000               Z=   -0.00000000
      Quadrupole Moment (Debye*Ang):
      Origin of the operator (Ang)=    0.0000    0.0000    0.0000
                  XX= -3.7656E+01              XY=  0.0000E+00              XZ=  0.0000E+00              YY= -8.6166E+01
                  YZ=  0.0000E+00              ZZ= -9.4689E+01
      In traceless form (Debye*Ang)
                  XX=  5.2771E+01              XY=  0.0000E+00              XZ=  0.0000E+00              YY= -1.9994E+01
                  YZ=  0.0000E+00              ZZ= -3.2778E+01
--


      Mulliken spin population analysis for root number:  8
      ---------------------------------------------------


++    Molecular charges:
      ------------------

      Mulliken spin population per centre and basis function type
      ---------------------------------------------------

                N1      X1    
      1s       0.0000  0.0000
      2px      0.3208  0.0014
      2pz      0.0000  0.0000
      2py      0.0889  0.0014
      3d2+     0.0000  0.0000
      3d1+     0.0012 -0.0048
      3d0      0.0000  0.0000
      3d1-     0.0041  0.1679
      3d2-     0.0000  0.0000
      4f3+     0.0000  0.0000
      4f2+     0.0000  0.0000
      4f1+     0.0011  0.0000
      4f0      0.0000  0.0000
      4f1-     0.0009  0.0000
      4f2-     0.0000  0.0000
      4f3-     0.0000  0.0000
      Total    0.4171  0.1659

      Total electronic spin=    1.000000
--


      Von Neumann Entropy (Root  9) =  3.02704


      Mulliken population analysis for root number:  9
      -----------------------------------------------


++    Molecular charges:
      ------------------

      Mulliken charges per centre and basis function type
      ---------------------------------------------------

                N1      X1    
      1s       4.1048 -0.1107
      2px      1.4072  0.0039
      2pz      0.9600  0.0026
      2py      1.4228  0.0039
      3d2+     0.0000  0.0000
      3d1+    -0.0075 -0.3172
      3d0      0.0056 -0.0377
      3d1-    -0.0093 -0.3300
      3d2-     0.0000  0.0000
      4f3+     0.0000  0.0000
      4f2+     0.0000  0.0000
      4f1+     0.0031  0.0000
      4f0      0.0026  0.0000
      4f1-     0.0032  0.0000
      4f2-     0.0000  0.0000
      4f3-     0.0002  0.0000
      Total    7.8926 -0.7852

      N-E     -0.8926  0.7852

      Total electronic charge=   15.000000

      Total            charge=   -1.000000
--



      Expectation values of various properties for root number:  9
      -----------------------------------------------------------


++    Molecular properties:
      ---------------------

      Charge (e):
                      =   -1.0000
      Dipole Moment (Debye):
      Origin of the operator (Ang)=    0.0000    0.0000    0.0000
                   X=  0.0000E+00               Y=  0.0000E+00               Z=  0.0000E+00           Total=  0.0000E+00
      Center of Charge (Ang)
                     X=   -0.00000000               Y=   -0.00000000               Z=   -0.00000000
      Quadrupole Moment (Debye*Ang):
      Origin of the operator (Ang)=    0.0000    0.0000    0.0000
                  XX= -6.2875E+01              XY=  0.0000E+00              XZ=  0.0000E+00              YY= -6.1376E+01
                  YZ=  0.0000E+00              ZZ= -9.5143E+01
      In traceless form (Debye*Ang)
                  XX=  1.5385E+01              XY=  0.0000E+00              XZ=  0.0000E+00              YY=  1.7633E+01
                  YZ=  0.0000E+00              ZZ= -3.3017E+01
--


      Mulliken spin population analysis for root number:  9
      ---------------------------------------------------


++    Molecular charges:
      ------------------

      Mulliken spin population per centre and basis function type
      ---------------------------------------------------

                N1      X1    
      1s       0.0000  0.0000
      2px      0.4381  0.0000
      2pz      0.0000  0.0000
      2py      0.3803  0.0000
      3d2+     0.0000  0.0000
      3d1+    -0.0085 -0.3325
      3d0      0.0000  0.0000
      3d1-    -0.0078 -0.2711
      3d2-     0.0000  0.0000
      4f3+     0.0000  0.0000
      4f2+     0.0000  0.0000
      4f1+    -0.0002  0.0000
      4f0      0.0000  0.0000
      4f1-    -0.0002  0.0000
      4f2-     0.0000  0.0000
      4f3-    -0.0000  0.0000
      Total    0.8018 -0.6036

      Total electronic spin=    1.000000
--


      Von Neumann Entropy (Root 10) =  3.01069


      Mulliken population analysis for root number: 10
      -----------------------------------------------


++    Molecular charges:
      ------------------

      Mulliken charges per centre and basis function type
      ---------------------------------------------------

                N1      X1    
      1s       4.1048 -0.1107
      2px      1.3480  0.0039
      2pz      0.9600  0.0026
      2py      1.4180  0.0039
      3d2+     0.0000  0.0000
      3d1+    -0.0034 -0.2498
      3d0      0.0056 -0.0377
      3d1-    -0.0053 -0.2873
      3d2-     0.0000  0.0000
      4f3+     0.0000  0.0000
      4f2+     0.0000  0.0000
      4f1+     0.0034  0.0000
      4f0      0.0026  0.0000
      4f1-     0.0036  0.0000
      4f2-     0.0000  0.0000
      4f3-     0.0002  0.0000
      Total    7.8375 -0.6751

      N-E     -0.8375  0.6751

      Total electronic charge=   15.000000

      Total            charge=   -1.000000
--



      Expectation values of various properties for root number: 10
      -----------------------------------------------------------


++    Molecular properties:
      ---------------------

      Charge (e):
                      =   -1.0000
      Dipole Moment (Debye):
      Origin of the operator (Ang)=    0.0000    0.0000    0.0000
                   X=  0.0000E+00               Y=  0.0000E+00               Z=  0.0000E+00           Total=  0.0000E+00
      Center of Charge (Ang)
                     X=   -0.00000000               Y=   -0.00000000               Z=   -0.00000000
      Quadrupole Moment (Debye*Ang):
      Origin of the operator (Ang)=    0.0000    0.0000    0.0000
                  XX= -6.1742E+01              XY=  0.0000E+00              XZ=  0.0000E+00              YY= -6.4194E+01
                  YZ=  0.0000E+00              ZZ= -9.6419E+01
      In traceless form (Debye*Ang)
                  XX=  1.8564E+01              XY=  0.0000E+00              XZ=  0.0000E+00              YY=  1.4887E+01
                  YZ=  0.0000E+00              ZZ= -3.3451E+01
--


      Mulliken spin population analysis for root number: 10
      ---------------------------------------------------


++    Molecular charges:
      ------------------

      Mulliken spin population per centre and basis function type
      ---------------------------------------------------

                N1      X1    
      1s       0.0000  0.0000
      2px      0.3391 -0.0000
      2pz      0.0000  0.0000
      2py      0.3869  0.0000
      3d2+     0.0000  0.0000
      3d1+    -0.0031 -0.1976
      3d0      0.0000  0.0000
      3d1-    -0.0039 -0.2412
      3d2-     0.0000  0.0000
      4f3+     0.0000  0.0000
      4f2+     0.0000  0.0000
      4f1+     0.0002  0.0000
      4f0      0.0000  0.0000
      4f1-     0.0002  0.0000
      4f2-     0.0000  0.0000
      4f3-     0.0000  0.0000
      Total    0.7194 -0.4388

      Total electronic spin=    1.000000
--



  Input file to MOLDEN was generated!


  Input file to MOLDEN was generated!


  Input file to MOLDEN was generated!


  Input file to MOLDEN was generated!


  Input file to MOLDEN was generated!


  Input file to MOLDEN was generated!


  Input file to MOLDEN was generated!


  Input file to MOLDEN was generated!


  Input file to MOLDEN was generated!


  Input file to MOLDEN was generated!


  Input file to MOLDEN was generated!

      Average orbitals are written to the RASORB file
      Natural orbitals for root   1 are written to the RASORB.1 file
      Natural orbitals for root   2 are written to the RASORB.2 file
      Natural orbitals for root   3 are written to the RASORB.3 file
      Natural orbitals for root   4 are written to the RASORB.4 file
      Natural orbitals for root   5 are written to the RASORB.5 file
      Natural orbitals for root   6 are written to the RASORB.6 file
      Natural orbitals for root   7 are written to the RASORB.7 file
      Natural orbitals for root   8 are written to the RASORB.8 file
      Natural orbitals for root   9 are written to the RASORB.9 file
      Natural orbitals for root  10 are written to the RASORB.10 file
      Spin density orbitals for root   1 are written to the SPDORB.1 file
      Spin density orbitals for root   2 are written to the SPDORB.2 file
      Spin density orbitals for root   3 are written to the SPDORB.3 file
      Spin density orbitals for root   4 are written to the SPDORB.4 file
      Spin density orbitals for root   5 are written to the SPDORB.5 file
      Spin density orbitals for root   6 are written to the SPDORB.6 file
      Spin density orbitals for root   7 are written to the SPDORB.7 file
      Spin density orbitals for root   8 are written to the SPDORB.8 file
      Spin density orbitals for root   9 are written to the SPDORB.9 file
      Spin density orbitals for root  10 are written to the SPDORB.10 file

 ###############################################################################
 ###############################################################################
 ###                                                                         ###
 ###                                                                         ###
 ###    WARNING: RunFile label BirthCertificate                              ###
 ###    was used       81 times                                              ###
 ###                                                                         ###
 ###                                                                         ###
 ###############################################################################
 ###############################################################################
 ###############################################################################
 ###############################################################################
 ###                                                                         ###
 ###                                                                         ###
 ###    WARNING: RunFile label nBas                                          ###
 ###    was used       57 times                                              ###
 ###                                                                         ###
 ###                                                                         ###
 ###############################################################################
 ###############################################################################
--- Stop Module: rasscf at Thu Jul 16 12:11:28 2020 /rc=_RC_ALL_IS_WELL_ ---
*** files: anion_ms.rasscf.molden anion_ms.rasscf.molden.1 anion_ms.rasscf.molden.2 anion_ms.rasscf.molden.3 anion_ms.rasscf.molden.4 anion_ms.rasscf.molden.5
           anion_ms.rasscf.molden.6 anion_ms.rasscf.molden.7 anion_ms.rasscf.molden.8 anion_ms.rasscf.molden.9 anion_ms.rasscf.molden.10 anion_ms.RasOrb anion_ms.RasOrb.1
           anion_ms.RasOrb.2 anion_ms.RasOrb.3 anion_ms.RasOrb.4 anion_ms.RasOrb.5 anion_ms.RasOrb.6 anion_ms.RasOrb.7 anion_ms.RasOrb.8 anion_ms.RasOrb.9 anion_ms.RasOrb.10
           anion_ms.rasscf.h5 anion_ms.SpdOrb.1 anion_ms.SpdOrb.2 anion_ms.SpdOrb.3 anion_ms.SpdOrb.4 anion_ms.SpdOrb.5 anion_ms.SpdOrb.6 anion_ms.SpdOrb.7 anion_ms.SpdOrb.8
           anion_ms.SpdOrb.9 anion_ms.SpdOrb.10 xmldump
[...]
          58  ( 2:7:   1/   5)   u d u0d0 u000      -0.051691       0.002672
         107  ( 3:7:   1/   6)   u d u0u0 d000       0.083210       0.006924
         111  ( 3:7:   1/   7)   u u d0u0 d000      -0.070745       0.005005
         136  ( 4:1:   2/   1)   2 0 u000 2000      -0.053398       0.002851
         238  ( 4:1:   2/   7)   2 0 00u0 2000       0.115317       0.013298

  The CI coefficients for the MIXED state nr.   4
--------------------------------------------------------------------------------
 CI COEFFICIENTS LARGER THAN  0.50D-01
  Occupation of active orbitals, and spin coupling
  of open shells. (u,d: Spin up or down).
  SGUGA info is (Midvert:IsyUp:UpperWalk/LowerWalk)
        Conf  SGUGA info        Occupation        Coefficient         Weight
           1  ( 1:1:   1/   1)   2 2 u000 0000       0.158805       0.025219
           7  ( 1:1:   1/   7)   2 2 00u0 0000      -0.280960       0.078939
          23  ( 2:6:   1/   1)   2 2 000u 0000      -0.912081       0.831892
          25  ( 2:6:   1/   3)   0 2 200u 0000       0.124708       0.015552
         373  ( 4:4:   1/   1)   u d u00d u000       0.054423       0.002962
         374  ( 4:4:   2/   1)   u d u00u d000      -0.092680       0.008590
         382  ( 4:4:   2/   2)   u u d00u d000       0.077153       0.005953
         421  ( 5:6:   1/   1)   2 0 000u 2000      -0.124852       0.015588

  The CI coefficients for the MIXED state nr.   5
--------------------------------------------------------------------------------
 CI COEFFICIENTS LARGER THAN  0.50D-01
  Occupation of active orbitals, and spin coupling
  of open shells. (u,d: Spin up or down).
  SGUGA info is (Midvert:IsyUp:UpperWalk/LowerWalk)
        Conf  SGUGA info        Occupation        Coefficient         Weight
           3  ( 1:1:   1/   3)   2 0 2u00 0000      -0.054541       0.002975
           4  ( 1:1:   1/   4)   0 2 2u00 0000       0.139876       0.019565
          46  ( 2:7:   1/   2)   u d ud00 u000       0.272837       0.074440
          50  ( 2:7:   1/   3)   u u dd00 u000       0.236769       0.056060
          87  ( 3:7:   1/   1)   u u 2000 d000      -0.098816       0.009765
          88  ( 3:7:   2/   1)   u u 2000 0d00      -0.441017       0.194496
          91  ( 3:7:   1/   2)   u d uu00 d000      -0.058861       0.003465
          95  ( 3:7:   1/   3)   u u du00 d000      -0.157327       0.024752
          99  ( 3:7:   1/   4)   u u ud00 d000      -0.172533       0.029768
         136  ( 4:1:   2/   1)   2 0 u000 2000      -0.086546       0.007490
         138  ( 4:1:   4/   1)   2 0 u000 ud00      -0.424494       0.180195
         153  ( 4:1:   2/   2)   0 2 u000 2000       0.069631       0.004849
         155  ( 4:1:   4/   2)   0 2 u000 ud00       0.412887       0.170475
         170  ( 4:1:   2/   3)   2 0 0u00 2000      -0.136404       0.018606
         187  ( 4:1:   2/   4)   0 2 0u00 2000       0.054142       0.002931
         659  ( 7:7:   3/   1)   u u 0000 2d00       0.433310       0.187757

  The CI coefficients for the MIXED state nr.   6
--------------------------------------------------------------------------------
 CI COEFFICIENTS LARGER THAN  0.50D-01
  Occupation of active orbitals, and spin coupling
  of open shells. (u,d: Spin up or down).
  SGUGA info is (Midvert:IsyUp:UpperWalk/LowerWalk)
        Conf  SGUGA info        Occupation        Coefficient         Weight
           4  ( 1:1:   1/   4)   0 2 2u00 0000       0.067965       0.004619
          42  ( 2:7:   1/   1)   u d 2000 u000       0.094854       0.008997
          46  ( 2:7:   1/   2)   u d ud00 u000       0.581287       0.337894
          50  ( 2:7:   1/   3)   u u dd00 u000       0.384478       0.147823
          88  ( 3:7:   2/   1)   u u 2000 0d00       0.203095       0.041248
          91  ( 3:7:   1/   2)   u d uu00 d000       0.220418       0.048584
          95  ( 3:7:   1/   3)   u u du00 d000       0.072080       0.005196
          99  ( 3:7:   1/   4)   u u ud00 d000      -0.520310       0.270723
         138  ( 4:1:   4/   1)   2 0 u000 ud00       0.193569       0.037469
         155  ( 4:1:   4/   2)   0 2 u000 ud00      -0.197083       0.038842
         170  ( 4:1:   2/   3)   2 0 0u00 2000      -0.068599       0.004706
         659  ( 7:7:   3/   1)   u u 0000 2d00      -0.206938       0.042823

  The CI coefficients for the MIXED state nr.   7
--------------------------------------------------------------------------------
 CI COEFFICIENTS LARGER THAN  0.50D-01
  Occupation of active orbitals, and spin coupling
  of open shells. (u,d: Spin up or down).
  SGUGA info is (Midvert:IsyUp:UpperWalk/LowerWalk)
        Conf  SGUGA info        Occupation        Coefficient         Weight
           2  ( 1:1:   1/   2)   2 2 0u00 0000       0.068320       0.004668
           3  ( 1:1:   1/   3)   2 0 2u00 0000      -0.125138       0.015659
           4  ( 1:1:   1/   4)   0 2 2u00 0000       0.322924       0.104280
          50  ( 2:7:   1/   3)   u u dd00 u000       0.182272       0.033223
          88  ( 3:7:   2/   1)   u u 2000 0d00       0.144871       0.020988
          91  ( 3:7:   1/   2)   u d uu00 d000      -0.499110       0.249111
          95  ( 3:7:   1/   3)   u u du00 d000      -0.586886       0.344435
          99  ( 3:7:   1/   4)   u u ud00 d000       0.193088       0.037283
         138  ( 4:1:   4/   1)   2 0 u000 ud00       0.140257       0.019672
         155  ( 4:1:   4/   2)   0 2 u000 ud00      -0.142663       0.020353
         170  ( 4:1:   2/   3)   2 0 0u00 2000      -0.322769       0.104180
         187  ( 4:1:   2/   4)   0 2 0u00 2000       0.130051       0.016913
         659  ( 7:7:   3/   1)   u u 0000 2d00      -0.148795       0.022140

  The CI coefficients for the MIXED state nr.   8
--------------------------------------------------------------------------------
 CI COEFFICIENTS LARGER THAN  0.50D-01
  Occupation of active orbitals, and spin coupling
  of open shells. (u,d: Spin up or down).
  SGUGA info is (Midvert:IsyUp:UpperWalk/LowerWalk)
        Conf  SGUGA info        Occupation        Coefficient         Weight
          42  ( 2:7:   1/   1)   u d 2000 u000       0.056955       0.003244
          43  ( 2:7:   2/   1)   u d 2000 0u00       0.052324       0.002738
          58  ( 2:7:   1/   5)   u d u0d0 u000       0.097218       0.009451
          62  ( 2:7:   1/   6)   u u d0d0 u000       0.068143       0.004643
          87  ( 3:7:   1/   1)   u u 2000 d000      -0.100366       0.010073
          88  ( 3:7:   2/   1)   u u 2000 0d00      -0.492870       0.242921
          91  ( 3:7:   1/   2)   u d uu00 d000      -0.072146       0.005205
         123  ( 3:7:   1/  10)   u u u0d0 d000      -0.082408       0.006791
         136  ( 4:1:   2/   1)   2 0 u000 2000      -0.076336       0.005827
         137  ( 4:1:   3/   1)   2 0 u000 du00       0.058004       0.003365
         138  ( 4:1:   4/   1)   2 0 u000 ud00      -0.450742       0.203169
         153  ( 4:1:   2/   2)   0 2 u000 2000      -0.074511       0.005552
         154  ( 4:1:   3/   2)   0 2 u000 du00      -0.051836       0.002687
         155  ( 4:1:   4/   2)   0 2 u000 ud00      -0.457067       0.208910
         170  ( 4:1:   2/   3)   2 0 0u00 2000       0.050533       0.002554
         551  ( 5:7:   3/   1)   u d 0000 2u00      -0.054042       0.002920
         659  ( 7:7:   3/   1)   u u 0000 2d00      -0.512070       0.262216

  The CI coefficients for the MIXED state nr.   9
--------------------------------------------------------------------------------
 CI COEFFICIENTS LARGER THAN  0.50D-01
  Occupation of active orbitals, and spin coupling
  of open shells. (u,d: Spin up or down).
  SGUGA info is (Midvert:IsyUp:UpperWalk/LowerWalk)
        Conf  SGUGA info        Occupation        Coefficient         Weight
          42  ( 2:7:   1/   1)   u d 2000 u000       0.077165       0.005954
          43  ( 2:7:   2/   1)   u d 2000 0u00       0.487271       0.237433
          88  ( 3:7:   2/   1)   u u 2000 0d00       0.057969       0.003360
         136  ( 4:1:   2/   1)   2 0 u000 2000       0.056516       0.003194
         137  ( 4:1:   3/   1)   2 0 u000 du00       0.491818       0.241885
         138  ( 4:1:   4/   1)   2 0 u000 ud00       0.050072       0.002507
         154  ( 4:1:   3/   2)   0 2 u000 du00      -0.488929       0.239051
         155  ( 4:1:   4/   2)   0 2 u000 ud00       0.061490       0.003781
         551  ( 5:7:   3/   1)   u d 0000 2u00      -0.498184       0.248187
         659  ( 7:7:   3/   1)   u u 0000 2d00       0.065942       0.004348

  The CI coefficients for the MIXED state nr.  10
--------------------------------------------------------------------------------
 CI COEFFICIENTS LARGER THAN  0.50D-01
  Occupation of active orbitals, and spin coupling
  of open shells. (u,d: Spin up or down).
  SGUGA info is (Midvert:IsyUp:UpperWalk/LowerWalk)
        Conf  SGUGA info        Occupation        Coefficient         Weight
           3  ( 1:1:   1/   3)   2 0 2u00 0000      -0.333010       0.110896
           4  ( 1:1:   1/   4)   0 2 2u00 0000       0.344844       0.118917
          42  ( 2:7:   1/   1)   u d 2000 u000      -0.073689       0.005430
          46  ( 2:7:   1/   2)   u d ud00 u000      -0.339984       0.115589
          88  ( 3:7:   2/   1)   u u 2000 0d00      -0.063767       0.004066
          91  ( 3:7:   1/   2)   u d uu00 d000       0.607138       0.368617
         136  ( 4:1:   2/   1)   2 0 u000 2000      -0.053719       0.002886
         138  ( 4:1:   4/   1)   2 0 u000 ud00      -0.055511       0.003081
         155  ( 4:1:   4/   2)   0 2 u000 ud00      -0.068924       0.004751
         170  ( 4:1:   2/   3)   2 0 0u00 2000      -0.344233       0.118496
         187  ( 4:1:   2/   4)   0 2 0u00 2000       0.363021       0.131784
         659  ( 7:7:   3/   1)   u u 0000 2d00      -0.074335       0.005526

--

--- Stop Module: caspt2 at Thu Jul 16 12:11:51 2020 /rc=_RC_ALL_IS_WELL_ ---
*** files: xmldump
    saved to directory /home/gayverjr/OpenCAP/n2_molcas/full_N2_example/symmetry/anion
--- Module caspt2 spent 22 seconds ---

--- Start Module: rassi at Thu Jul 16 12:11:51 2020 ---

()()()()()()()()()()()()()()()()()()()()()()()()()()()()()()()()()()()()()()()()()()()()()()()()()()

                                               &RASSI

                                   only a single process is used
                       available to each process: 20 GB of memory, 16 threads
                                             pid: 37739
()()()()()()()()()()()()()()()()()()()()()()()()()()()()()()()()()()()()()()()()()()()()()()()()()()


      ********************************************************************************
      *                                                                              *
      *                             General data section                             *
      *                                                                              *
      ********************************************************************************

   Specific data for JOBIPH file JOBIPH                                                                                                                          
   -------------------------------------

   Header from SEWARD:
                                                                               
        Integrals generated by seward 4.2.0  , Thu Jul 16 12:11:02 2020        

   CASSCF title (first line only):
       (No title given)                                                        

   STATE IRREP:                            6
   SPIN MULTIPLICITY:                      2
   ACTIVE ELECTRONS:                       5
   MAX RAS1 HOLES:                         0
   MAX RAS3 ELECTRONS:                     0
   NR OF CONFIG:                         872

  Info: creating TDMFILE
        estimated file size                  2258 kB
        TDMs in AO format


   The following data are common to all the states:
   ------------------------------------------------
   (note: frozen counts as inactive, deleted as secondary)

      Nr of irreps: 8

                 Total     No./Irrep 
      Irrep                  1   2   3   4   5   6   7   8
                            ag b3u b2u b1g b1u b2g b3g  au

      INACTIVE       5       3   0   0   0   2   0   0   0
      ACTIVE        10       0   1   1   0   0   4   4   0
      SECONDARY    104      25  13  13   8  20  10  10   5
      BASIS        119      28  14  14   8  22  14  14   5

      RAS1           0       0   0   0   0   0   0   0   0
      RAS2          10       0   1   1   0   0   4   4   0
      RAS3           0       0   0   0   0   0   0   0   0

        MATRIX ELEMENTS WILL BE COMPUTED FOR THE FOLLOWING ONE-ELECTRON OPERATORS, UNLESS ZERO BY SYMMETRY.
   (Herm=Hermitian, Anti=Antihermitian, Sing=Singlet operator, Trip=Triplet operator)
     MLTPL  0   1 (HERMSING)     MLTPL  1   1 (HERMSING)     MLTPL  1   2 (HERMSING)
     MLTPL  1   3 (HERMSING)     MLTPL  2   1 (HERMSING)     MLTPL  2   2 (HERMSING)
     MLTPL  2   3 (HERMSING)     MLTPL  2   4 (HERMSING)     MLTPL  2   5 (HERMSING)
     MLTPL  2   6 (HERMSING)     VELOCITY   1 (ANTISING)     VELOCITY   2 (ANTISING)
     VELOCITY   3 (ANTISING)     ANGMOM     1 (ANTISING)     ANGMOM     2 (ANTISING)
     ANGMOM     3 (ANTISING)     MLTPV  2   1 (ANTISING)     MLTPV  2   2 (ANTISING)
     MLTPV  2   3 (ANTISING)     MLTPV  2   4 (ANTISING)     MLTPV  2   5 (ANTISING)
     MLTPV  2   6 (ANTISING)

       EIGENSTATES OF A SPIN-FREE HAMILTONIAN WILL BE COMPUTED BASED ON:

  a (effective) Hamiltonian matrix that was read from the wavefunction file(s).
  SO coupling elements will be added.
       EIGENSTATES OF SPIN-ORBIT HAMILTONIAN WILL BE COMPUTED
        MATRIX ELEMENTS OVER SPIN EIGENSTATES FOR:
     MLTPL  0   1 (HERMSING)     MLTPL  1   1 (HERMSING)     MLTPL  1   2 (HERMSING)
     MLTPL  1   3 (HERMSING)     MLTPL  2   1 (HERMSING)     MLTPL  2   2 (HERMSING)
     MLTPL  2   3 (HERMSING)     MLTPL  2   4 (HERMSING)     MLTPL  2   5 (HERMSING)
     MLTPL  2   6 (HERMSING)     VELOCITY   1 (ANTISING)     VELOCITY   2 (ANTISING)
     VELOCITY   3 (ANTISING)     ANGMOM     1 (ANTISING)     ANGMOM     2 (ANTISING)
     ANGMOM     3 (ANTISING)     MLTPV  2   1 (ANTISING)     MLTPV  2   2 (ANTISING)
     MLTPV  2   3 (ANTISING)     MLTPV  2   4 (ANTISING)     MLTPV  2   5 (ANTISING)
     MLTPV  2   6 (ANTISING)

  Nr of states:                   10

   State:        1   2   3   4   5   6   7   8   9  10
  JobIph:        1   1   1   1   1   1   1   1   1   1
 Root nr:        1   2   3   4   5   6   7   8   9  10

  HAMILTONIAN MATRIX FOR THE ORIGINAL STATES:

  Diagonal, with energies
   -109.30571487   -109.23842683   -109.21463957   -109.07506369   -108.66931669
   -108.66910327   -108.66787971   -108.61025725   -108.59961503   -108.59960427

      OVERLAP MATRIX FOR THE ORIGINAL STATES:

  Diagonal, with elements
      1.00000000      1.00000000      1.00000000      1.00000000      1.00000000
      1.00000000      1.00000000      1.00000000      1.00000000      1.00000000

::    RASSI State    1     Total energy:   -109.30571487
::    RASSI State    2     Total energy:   -109.23842683
::    RASSI State    3     Total energy:   -109.21463957
::    RASSI State    4     Total energy:   -109.07506369
::    RASSI State    5     Total energy:   -108.66931669
::    RASSI State    6     Total energy:   -108.66910327
::    RASSI State    7     Total energy:   -108.66787971
::    RASSI State    8     Total energy:   -108.61025725
::    RASSI State    9     Total energy:   -108.59961503
::    RASSI State   10     Total energy:   -108.59960427



      ****************************************************************************************************
      *                                                                                                  *
      *                                         Spin-free section                                        *
      *                                                                                                  *
      *                 Note: index according to input order, order according to energy.                 *
      *                                                                                                  *
      ****************************************************************************************************



  SPIN-FREE ENERGIES:
  (Shifted by EMIN (a.u.) =       -109.3057148749)

 SF State       Relative EMIN(au)   Rel lowest level(eV)    D:o, cm**(-1)

     1             0.0000000000        0.0000000000              0.0000
     2             0.0672880433        1.8310009363          14768.0185
     3             0.0910753014        2.4782852040          19988.7182
     4             0.2306511808        6.2763383685          50622.0829
     5             0.6363981828       17.3172767572         139673.2566
     6             0.6366116046       17.3230842610         139720.0972
     7             0.6378351646       17.3563790265         139988.6376
     8             0.6954576261       18.9243660803         152635.3061
     9             0.7060998490       19.2139557195         154971.0041
    10             0.7061106067       19.2142484520         154973.3651
 Electric-dipole - electric-octupole not included
 Electric-dipole - magnetic-quadrupole not included


      ****************************************************************************************************
      *                                                                                                  *
      *                                    Special properties section                                    *
      *                                                                                                  *
      ****************************************************************************************************


++ I/O STATISTICS
 
  I. General I/O information
  - - - - - - - - - - - - - - - - - - - - - - - - - - - - - - - - - - - - - - - - - - -
  Unit  Name          Flsize      Write/Read            MBytes           Write/Read
                      (MBytes)       Calls              In/Out           Time, sec.
  - - - - - - - - - - - - - - - - - - - - - - - - - - - - - - - - - - - - - - - - - - -
   1  SCRATCH           0.11 .      10/      55 .      0.1/      0.6 .       0/       0
   2  ANNI              0.00 .       0/       0 .      0.0/      0.0 .       0/       0
   3  RUNFILE          13.41 .     182/    1188 .      1.3/      8.7 .       0/       0
   4  ONEINT            1.58 .       0/    2421 .      0.0/   2214.6 .       0/       0
   5  JOBIPH            1.81 .       0/      98 .      0.0/      1.4 .       0/       0
   6  TDMFILE           2.74 .     165/     110 .      2.7/      1.8 .       0/       0
  - - - - - - - - - - - - - - - - - - - - - - - - - - - - - - - - - - - - - - - - - - -
   *  TOTAL            19.65 .     357/    3872 .      4.1/   2227.0 .       0/       0
  - - - - - - - - - - - - - - - - - - - - - - - - - - - - - - - - - - - - - - - - - - -
 
  II. I/O Access Patterns
  - - - - - - - - - - - - - - - - - - - -
  Unit  Name               % of random
                         Write/Read calls
  - - - - - - - - - - - - - - - - - - - -
   1  SCRATCH             90.0/ 100.0
   2  ANNI                 0.0/   0.0
   3  RUNFILE             28.6/  10.9
   4  ONEINT               0.0/  81.5
   5  JOBIPH               0.0/  75.5
   6  TDMFILE             99.4/ 100.0
  - - - - - - - - - - - - - - - - - - - -
--
--- Stop Module: rassi at Thu Jul 16 12:11:52 2020 /rc=_RC_ALL_IS_WELL_ ---
*** files: anion_ms.rassi.h5 xmldump
    saved to directory /home/gayverjr/OpenCAP/n2_molcas/full_N2_example/symmetry/anion

.##################.
.# Happy landing! #.
.##################.

    Timing: Wall=52.15 User=249.74 System=13.54
