******************************************************
*** WorkDir and CurrDir are the same, not cleaned! ***
******************************************************
   This run of MOLCAS is using the pymolcas driver

                             OPE
                             OPE          NMOL  CASOP  ENMOLC A   SO
                 OPE        NMOLC        AS  OP EN  MO LC     AS  OP
                OPENM       OL CA        SO  PE NM  OL CA     SOP EN
                OP EN      MO   LC       AS  OP ENMOL  CASO   PENMOL
                OP  EN     MO   LC       AS  OP EN     MO     LC ASO
               OP   E  NMOL  C  AS       OP  EN MO     LC     AS  OP
               OP  E   NMO   LC AS        OPEN  MO     LCASOP EN   M
               O  PEN   MO  LCA  SO
            OPE   NMO   L   CAS    OP
        OPENMOL  CASOP     ENMOL   CASOPE
     OPENMOLCA   SOPENMOLCASOPEN   MOLCASOPE
    OPENMOLCAS   OP           EN   MOL    CAS
    OPENMOLCAS       OP  ENM        O     LCA
    OPENMOLCAS    OPEN  MOLCASO     P  E  NMO
    OPENMOLCAS     OP               E  N  MOL
    OPENMOLCA   SO           PENM   O  L  CAS    OPEN    MO    LCAS
    OPENMOLCA   SOP           ENM   O  L  CAS   OP  EN  MOLC  AS   O
    OPENMOLCA   SOPE           NM      O  LCA   S      OP  EN MO
    OPENMOLC                AS         O  PEN   M      OL  CA  SOPE
    OPENMO        LCASOPE  NMOL        C  ASO   P      ENMOLC     AS
    OPE     NMO      LCA  SO     P     E   NM   OL  CA SO  PE N   MO
          OPENMOLCA            SOPE   NMO        LCAS  O    P  ENMO
     OPENMOLCASOPENMOLCASOPENMOLCASOPENMOLCA
        OPENMOLCASOPENMOLCASOPENMOLCASOPE
            OPENMOLCASOPENMOLCASOPENM
               OPENMOLCASOPENMOLCA        version: 19.11
                   OPENMOLCASO
                       OPE                tag: 1162-ga18ab34

 OpenMolcas is free software; you can redistribute it and/or modify it
 under the terms of the GNU Lesser General Public License version 2.1.
 OpenMolcas is distributed in the hope that it will be useful, but it
 is provided "as is" and without any express or implied warranties.
 For more details see the full text of the license in the file
 LICENSE or in <http://www.gnu.org/licenses/>.

                 Copyright (C) The OpenMolcas Authors
           For the author list and the recommended citation,
                   consult the file CONTRIBUTORS.md

           *************************************************
           * pymolcas version py2.08                       *
           *   build bed633bbe89b7744c23cdbfc3f64969c      *
           *   (after the EMIL interpreter by V. Veryazov) *
           *************************************************

configuration info
------------------
C Compiler ID: GNU
C flags: -std=gnu99 -fopenmp
Fortran Compiler ID: GNU
Fortran flags: -fno-aggressive-loop-optimizations -cpp -fdefault-integer-8 -fopenmp
Definitions: _MOLCAS_;_I8_;_LINUX_;_MKL_;_DMRG_
Parallel: OFF (GA=OFF)


   ----------------------------------------------------------------------------------
  |
  |             Project: gs_ms
  |      Submitted from: /scratch/gayverjr/gs_ms.4031980713
  |        Scratch area: /scratch/gayverjr/gs_ms.4031980713
  |     Save outputs to: /home/gayverjr/OpenCAP/n2_molcas/full_N2_example/symmetry/gs
  |              Molcas: /home/qcsoftware/OpenMolcas/qcmaquis_build/build
  |
  | Scratch area is NOT empty
  |
  |      MOLCAS_DRIVER = /home/qcsoftware/bin/pymolcas
  | MOLCAS_NEW_WORKDIR = YES
  |      MOLCAS_NPROCS = 16
  |      MOLCAS_SOURCE = /home/qcsoftware/OpenMolcas/Molcas_src
  |   MOLCAS_STRUCTURE = 0
  |
   ----------------------------------------------------------------------------------

++ ---------   Input file   ---------

&GATEWAY
Expert
Basis set
 N.aug-cc-pvtz
 N1  0.0  0.0  1.039
End of Basis
Basis set
X ..... / inline
   0.00   2
    3    3
               0.0288
               0.0144
               0.0072
      1.00000000             0.00000000             0.00000000
      0.00000000             1.00000000             0.00000000
      0.00000000             0.00000000             1.00000000
     3    3
               0.02455
               0.012275
               0.0061375
     1.00000000             0.00000000             0.00000000
     0.00000000             1.00000000             0.00000000
     0.00000000             0.00000000             1.00000000
     3    3
               0.0755
               0.03775
               0.018875
      1.000000E+00           0.000000E+00           0.000000E+00           0.00000000
      0.000000E+00           1.000000E+00           0.000000E+00           0.00000000
      0.000000E+00           0.000000E+00           1.000000E+00           0.00000000
X1  0.000  0.000  0.000
End of basis
Symmetry
x y z

&SEWARD

>>> COPY /home/gayverjr/OpenCAP/n2_molcas/full_N2_example/symmetry/orbs/casscf/cas_orbs.RasOrb INPORB

&RASSCF
LUMORB
Inactive = 3 0 0 0 2 0 0 0
Ras2= 0 1 1 0 0 4 4 0
TDM
NActEl=4,0,0
CIROOT= 10 10 1

&CASPT2
MAXIter = 50
MULtistate = all

&RASSI
TRD1
Heff
EJOB

-- ----------------------------------

--- Start Module: gateway at Thu Jul 16 11:38:24 2020 ---

()()()()()()()()()()()()()()()()()()()()()()()()()()()()()()()()()()()()()()()()()()()()()()()()()()

                                              &GATEWAY

                                   only a single process is used
                       available to each process: 20 GB of memory, 16 threads
                                             pid: 45511
()()()()()()()()()()()()()()()()()()()()()()()()()()()()()()()()()()()()()()()()()()()()()()()()()()

 ###############################################################################
 ###############################################################################
 ###                                                                         ###
 ###                                                                         ###
 ###    WARNING:  EXPERT option is ON!                                       ###
 ###                                                                         ###
 ###                                                                         ###
 ###############################################################################
 ###############################################################################

++    Symmetry information:
      ---------------------

                    --- Group Generators ---
                    Reflection in the yz-plane  
                    Reflection in the xz-plane  
                    Reflection in the xy-plane  

                    Character Table for D2h

                             E   s(yz) s(xz) C2(z) s(xy) C2(y) C2(x)   i  
                    ag       1     1     1     1     1     1     1     1  
                    b3u      1    -1     1    -1     1    -1     1    -1  x
                    b2u      1     1    -1    -1     1     1    -1    -1  y
                    b1g      1    -1    -1     1     1    -1    -1     1  xy, Rz
                    b1u      1     1     1     1    -1    -1    -1    -1  z
                    b2g      1    -1     1    -1    -1     1    -1     1  xz, Ry
                    b3g      1     1    -1    -1    -1    -1     1     1  yz, Rx
                    au       1    -1    -1     1    -1     1     1    -1  I
--


++    Basis set information:
      ----------------------


      Basis set label: N.AUG-CC-PVTZ.........

      Electronic valence basis set:
      ------------------
      Associated Effective Charge   7.000000 au
      Associated Actual Charge      7.000000 au
      Nuclear Model: Point charge

      Shell  nPrim  nBasis  Cartesian Spherical Contaminant
         s      11       5        X                  
         p       6       4        X                  
         d       3       3                 X         
         f       2       2                 X         


      Basis set label: X...............................................................................

      Electronic valence basis set:
      ------------------
      Associated Effective Charge   0.000000 au
      Associated Actual Charge      0.000000 au
      Nuclear Model: Point charge

      Shell  nPrim  nBasis  Cartesian Spherical Contaminant
         s       3       3        X                  
         p       3       3        X                  
         d       3       3                 X         
--


++    Molecular structure info:
      -------------------------

                    ************************************************ 
                    **** Cartesian Coordinates / Bohr, Angstrom **** 
                    ************************************************ 

     Center  Label                x              y              z                     x              y              z
        1      N1               0.000000       0.000000       1.039000              0.000000       0.000000       0.549815
        2      N1               0.000000       0.000000      -1.039000              0.000000       0.000000      -0.549815
        3      X1               0.000000       0.000000       0.000000              0.000000       0.000000       0.000000

                    *************************************** 
                    *    InterNuclear Distances / Bohr    * 
                    *************************************** 

               1 N1            2 N1            3 X1    
    1 N1       0.000000
    2 N1       2.078000        0.000000
    3 X1       1.039000        1.039000        0.000000

                    ******************************************* 
                    *    InterNuclear Distances / Angstrom    * 
                    ******************************************* 

               1 N1            2 N1            3 X1    
    1 N1       0.000000
    2 N1       1.099630        0.000000
    3 X1       0.549815        0.549815        0.000000

                    ************************************** 
                    *    Valence Bond Angles / Degree    * 
                    ************************************** 
                          Atom centers                 Phi
                      2 N1       1 N1       3 X1         0.00
                      1 N1       2 N1       3 X1         0.00
                      1 N1       3 X1       2 N1       180.00
--


            Nuclear Potential Energy             23.58036574 au

--- Stop Module: gateway at Thu Jul 16 11:38:27 2020 /rc=_RC_ALL_IS_WELL_ ---
*** files: xmldump
    saved to directory /home/gayverjr/OpenCAP/n2_molcas/full_N2_example/symmetry/gs
--- Module gateway spent 2 seconds ---

--- Start Module: seward at Thu Jul 16 11:38:27 2020 ---

()()()()()()()()()()()()()()()()()()()()()()()()()()()()()()()()()()()()()()()()()()()()()()()()()()

                                              &SEWARD

                                   only a single process is used
                       available to each process: 20 GB of memory, 16 threads
                                             pid: 45532
()()()()()()()()()()()()()()()()()()()()()()()()()()()()()()()()()()()()()()()()()()()()()()()()()()

               SEWARD will generate:
                  Multipole Moment integrals up to order  2
                  Kinetic Energy integrals
                  Nuclear Attraction integrals (point charge)
                  One-Electron Hamiltonian integrals
                  Velocity integrals
                  Orbital angular momentum around ( 0.0000  0.0000  0.0000 )
                  Velocity quadrupole around ( 0.0000  0.0000  0.0000 )
                  Two-Electron Repulsion integrals

                   Integrals are discarded if absolute value <: 0.10E-13
                   Integral cutoff threshold is set to       <: 0.10E-15

                    Unitary symmetry adaptation


            Nuclear Potential Energy             23.58036574 au


      Basis set specifications :
      Symmetry species         ag   b3u  b2u  b1g  b1u  b2g  b3g  au 
      Basis functions           28   14   14    8   22   14   14    5


  Input file to MOLDEN was generated!

--- Stop Module: seward at Thu Jul 16 11:38:31 2020 /rc=_RC_ALL_IS_WELL_ ---
*** files: gs_ms.GssOrb gs_ms.guessorb.h5 gs_ms.guessorb.molden xmldump
    saved to directory /home/gayverjr/OpenCAP/n2_molcas/full_N2_example/symmetry/gs
--- Module seward spent 4 seconds ---

>>> COPY /home/gayverjr/OpenCAP/n2_molcas/full_N2_example/symmetry/orbs/casscf/cas_orbs.RasOrb INPORB

--- Start Module: rasscf at Thu Jul 16 11:38:31 2020 ---

()()()()()()()()()()()()()()()()()()()()()()()()()()()()()()()()()()()()()()()()()()()()()()()()()()

                                              &RASSCF

                                   only a single process is used
                       available to each process: 20 GB of memory, 16 threads
                                             pid: 45563
()()()()()()()()()()()()()()()()()()()()()()()()()()()()()()()()()()()()()()()()()()()()()()()()()()

 ###############################################################################
 ###############################################################################
 ###                                                                         ###
 ###                                                                         ###
 ###    WARNING: Had to guess the spin.                                      ###
 ###                                                                         ###
 ###                                                                         ###
 ###############################################################################
 ###############################################################################
  Warning: no input and no reliable source
  for the spin multiplicity.
  Guess ISPIN=                    1

      Header of the ONEINT file:
      --------------------------
      
      Integrals generated by seward 4.2.0  , Thu Jul 16 11:38:27 2020


      OrdInt status: non-squared


      Cartesian coordinates in Angstrom:
      -----------------------------------------------------
      No.  Label        X            Y            Z        
      -----------------------------------------------------
       1   N1         0.00000000   0.00000000   0.54981512
       2   X1         0.00000000   0.00000000   0.00000000
       3   N1         0.00000000   0.00000000  -0.54981512
      -----------------------------------------------------
      Nuclear repulsion energy =   23.58036574

++    Wave function specifications:
      -----------------------------

      Number of closed shell electrons          10
      Number of electrons in active shells       4
      Max number of holes in RAS1 space          0
      Max nr of electrons in RAS3 space          0
      Number of inactive orbitals                5
      Number of active orbitals                 10
      Number of secondary orbitals             104
      Spin quantum number                      0.0
      State symmetry                             1
--

++    Orbital specifications:
      -----------------------

      Symmetry species                           1   2   3   4   5   6   7   8
                                                ag b3u b2u b1g b1u b2g b3g  au
      Frozen orbitals                            0   0   0   0   0   0   0   0
      Inactive orbitals                          3   0   0   0   2   0   0   0
      Active orbitals                            0   1   1   0   0   4   4   0
      RAS1 orbitals                              0   0   0   0   0   0   0   0
      RAS2 orbitals                              0   1   1   0   0   4   4   0
      RAS3 orbitals                              0   0   0   0   0   0   0   0
      Secondary orbitals                        25  13  13   8  20  10  10   5
      Deleted orbitals                           0   0   0   0   0   0   0   0
      Number of basis functions                 28  14  14   8  22  14  14   5
--

++    CI expansion specifications:
      ----------------------------

      Number of CSFs                           249
      Number of determinants                   303
      Number of root(s) required                10
      Root chosen for geometry opt.             10
      CI roots used                              1     2     3     4     5     6     7     8     9    10
      weights                                0.100 0.100 0.100 0.100 0.100 0.100 0.100 0.100 0.100 0.100
      highest root included in the CI           10
      max. size of the explicit Hamiltonian    200
--

++    Optimization specifications:
      ----------------------------

      RASSCF algorithm: Conventional
      Maximum number of macro iterations       200
      Maximum number of SX iterations          100
      Threshold for RASSCF energy            0.100E-07
      Threshold for max MO rotation          0.100E+00
      Threshold for max BLB element          0.100E-03
      Level shift parameter                  0.500E+00
      Make Quasi-Newton update
--

      The MO-coefficients are taken from the file:
      INPORB                                                                                                                          
      Title: RASSCF average (pseudo-natural) orbitals                                      

      Total molecular charge    0.00

      ************************************************************************************************************************
      *                                                                                                                      *
      *                                            Wave function control section                                             *
      *                                                                                                                      *
      ************************************************************************************************************************


                                         RASSCF iterations: Energy and convergence statistics
                                         ----------------------------------------------------

      Iter CI   SX   CI       RASSCF       Energy    max ROT     max BLB   max BLB  Level Ln srch  Step   QN   Walltime
          iter iter root      energy       change     param      element    value   shift minimum  type update hh:mm:ss
 Nr of preliminary CI iterations:   1
 ###############################################################################
 ###############################################################################
 ###                                                                         ###
 ###                                                                         ###
 ###    WARNING: Large orbital rotation.                                     ###
 ###                                                                         ###
 ###                                                                         ###
 ###############################################################################
 ###############################################################################
      Molecular orbital   4 of symmetry 6 MO space 2  weight is    0.324668
 ###############################################################################
 ###############################################################################
 ###                                                                         ###
 ###                                                                         ###
 ###    WARNING: Large orbital rotation.                                     ###
 ###                                                                         ###
 ###                                                                         ###
 ###############################################################################
 ###############################################################################
      Molecular orbital   4 of symmetry 7 MO space 2  weight is    0.324667
        1   1   73    0  -108.25693938    0.00E+00  -0.51E+00*   1   7 6  0.80E-01*  0.00   0.00    SX    NO    0:00:00
        2   4   58    0  -108.32076460   -0.64E-01* -0.14E+00*   1   7 7 -0.13E-01*  0.00   0.00    SX    NO    0:00:00
        3   3   40    0  -108.32355253   -0.28E-02* -0.11E+00*   3  22 1  0.75E-02*  0.00   0.00    SX    NO    0:00:00
        4   3   34    0  -108.32411497   -0.56E-03*  0.62E-01    1   5 6  0.27E-02*  0.00   0.00    SX    NO    0:00:00
        5   3   32    0  -108.32427581   -0.16E-03*  0.50E-01    1   5 6 -0.15E-02*  0.00   0.92    QN   YES    0:00:00
        6   3   33    0  -108.32434851   -0.73E-04*  0.57E-01    1   5 6 -0.89E-03*  0.00   2.50    LS   YES    0:00:00
        7   3   35    0  -108.32440077   -0.52E-04*  0.76E-01    3  17 1  0.80E-03*  0.00   2.26    QN   YES    0:00:00
        8   3   36    0  -108.32444589   -0.45E-04*  0.66E-01    3  17 1  0.80E-03*  0.00   2.24    LS   YES    0:00:00
        9   3   37    0  -108.32446137   -0.15E-04*  0.28E-01    3  17 1  0.89E-03*  0.00   1.25    QN   YES    0:00:00
       10   3   37    0  -108.32447315   -0.12E-04*  0.26E-01    3  17 1  0.41E-03*  0.00   2.03    LS   YES    0:00:00
       11   3   36    0  -108.32447778   -0.46E-05* -0.11E-01    2  11 5 -0.89E-04   0.00   1.31    QN   YES    0:00:00
       12   3   31    0  -108.32447917   -0.14E-05*  0.26E-02    2   8 5  0.71E-04   0.00   1.20    QN   YES    0:00:00
       13   3   28    0  -108.32447930   -0.13E-06*  0.10E-02    2  10 6  0.25E-04   0.00   1.36    QN   YES    0:00:00
       14   3   25    0  -108.32447934   -0.42E-07*  0.85E-03    2  10 6  0.14E-04   0.00   1.57    QN   YES    0:00:00
       15   3   22    0  -108.32447936   -0.21E-07* -0.49E-03    2   8 5 -0.17E-04   0.00   1.36    QN   YES    0:00:00
       16   3   19    0  -108.32447937   -0.55E-08  -0.24E-03    2   8 5 -0.77E-05   0.00   1.25    QN   YES    0:00:00
      Convergence after 16 iterations
       17   3   19    0  -108.32447937   -0.87E-09  -0.24E-03    1   2 3  0.19E-05   0.00   1.25    QN   YES    0:00:00

      ************************************************************************************************************************
                                                      Wave function printout:
                       occupation of active orbitals, and spin coupling of open shells (u,d: Spin up or down)
      ************************************************************************************************************************

      Note: transformation to natural orbitals
      has been made, which may change the order of the CSFs.

      printout of CI-coefficients larger than  0.05 for root  1
      energy=    -109.052915
      conf/sym  2 3 6666 7777     Coeff  Weight
             1  2 2 0000 0000  -0.96596 0.93308
             3  0 2 2000 0000   0.13255 0.01757
            34  u d u000 d000  -0.11437 0.01308
            38  u u d000 d000   0.09010 0.00812
            59  2 0 0000 2000   0.13255 0.01757

      printout of CI-coefficients larger than  0.05 for root  2
      energy=    -108.436789
      conf/sym  2 3 6666 7777     Coeff  Weight
             1  2 2 0000 0000  -0.08970 0.00805
             2  2 0 2000 0000   0.14294 0.02043
             3  0 2 2000 0000  -0.36239 0.13133
            34  u d u000 d000   0.48751 0.23766
            38  u u d000 d000   0.66772 0.44586
            59  2 0 0000 2000  -0.36239 0.13133
            70  0 2 0000 2000   0.14294 0.02043

      printout of CI-coefficients larger than  0.05 for root  3
      energy=    -108.368440
      conf/sym  2 3 6666 7777     Coeff  Weight
             2  2 0 2000 0000   0.35378 0.12516
             3  0 2 2000 0000  -0.34657 0.12011
            34  u d u000 d000  -0.71011 0.50426
            59  2 0 0000 2000  -0.34657 0.12011
            70  0 2 0000 2000   0.35378 0.12516

      printout of CI-coefficients larger than  0.05 for root  4
      energy=    -108.283085
      conf/sym  2 3 6666 7777     Coeff  Weight
             2  2 0 2000 0000   0.69553 0.48376
             3  0 2 2000 0000  -0.07485 0.00560
            59  2 0 0000 2000   0.07485 0.00560
            70  0 2 0000 2000  -0.69553 0.48376

      printout of CI-coefficients larger than  0.05 for root  5
      energy=    -108.242967
      conf/sym  2 3 6666 7777     Coeff  Weight
             1  2 2 0000 0000   0.05873 0.00345
             2  2 0 2000 0000   0.58812 0.34589
             3  0 2 2000 0000   0.30282 0.09170
            20  2 0 u00d 0000   0.05000 0.00250
            34  u d u000 d000   0.29135 0.08488
            38  u u d000 d000  -0.12304 0.01514
            59  2 0 0000 2000   0.30282 0.09170
            70  0 2 0000 2000   0.58812 0.34589
            76  0 2 0000 u00d   0.05000 0.00250

      printout of CI-coefficients larger than  0.05 for root  6
      energy=    -108.208906
      conf/sym  2 3 6666 7777     Coeff  Weight
             2  2 0 2000 0000  -0.09655 0.00932
             3  0 2 2000 0000  -0.54679 0.29897
             4  2 0 ud00 0000   0.07279 0.00530
             5  0 2 ud00 0000  -0.26131 0.06829
            21  0 2 u00d 0000  -0.12578 0.01582
            35  u d u000 0d00  -0.11581 0.01341
            39  u u d000 0d00  -0.25327 0.06415
            41  u u d000 000d  -0.12636 0.01597
            42  u d 0u00 d000   0.11581 0.01341
            46  u u 0d00 d000   0.25327 0.06415
            59  2 0 0000 2000   0.54679 0.29897
            60  2 0 0000 ud00   0.26131 0.06829
            65  2 0 0000 u00d   0.12578 0.01582
            70  0 2 0000 2000   0.09655 0.00932
            71  0 2 0000 ud00  -0.07279 0.00530
           168  u u 000d d000   0.12636 0.01597

      printout of CI-coefficients larger than  0.05 for root  7
      energy=    -108.186343
      conf/sym  2 3 6666 7777     Coeff  Weight
             4  2 0 ud00 0000   0.12826 0.01645
             5  0 2 ud00 0000  -0.37972 0.14419
            23  0 2 0u0d 0000   0.05387 0.00290
            35  u d u000 0d00   0.35059 0.12292
            39  u u d000 0d00   0.45182 0.20414
            42  u d 0u00 d000   0.35059 0.12292
            46  u u 0d00 d000   0.45182 0.20414
            49  u u 0d00 000d  -0.05818 0.00338
            60  2 0 0000 ud00  -0.37972 0.14419
            66  2 0 0000 0u0d   0.05387 0.00290
            71  0 2 0000 ud00   0.12826 0.01645
           169  u u 000d 0d00  -0.05818 0.00338

      printout of CI-coefficients larger than  0.05 for root  8
      energy=    -108.178060
      conf/sym  2 3 6666 7777     Coeff  Weight
             3  0 2 2000 0000   0.33001 0.10890
             4  2 0 ud00 0000   0.06492 0.00421
             5  0 2 ud00 0000  -0.22502 0.05063
            21  0 2 u00d 0000   0.10626 0.01129
            35  u d u000 0d00  -0.41289 0.17048
            39  u u d000 0d00  -0.36965 0.13664
            41  u u d000 000d   0.08128 0.00661
            42  u d 0u00 d000   0.41289 0.17048
            45  u d 0u00 000d  -0.05573 0.00311
            46  u u 0d00 d000   0.36965 0.13664
            49  u u 0d00 000d  -0.05120 0.00262
            59  2 0 0000 2000  -0.33001 0.10890
            60  2 0 0000 ud00   0.22502 0.05063
            65  2 0 0000 u00d  -0.10626 0.01129
            71  0 2 0000 ud00  -0.06492 0.00421
           147  u d 000u 0d00   0.05573 0.00311
           168  u u 000d d000  -0.08128 0.00661
           169  u u 000d 0d00   0.05120 0.00262

      printout of CI-coefficients larger than  0.05 for root  9
      energy=    -108.144405
      conf/sym  2 3 6666 7777     Coeff  Weight
             4  2 0 ud00 0000   0.35172 0.12371
             5  0 2 ud00 0000  -0.34449 0.11867
            35  u d u000 0d00  -0.49688 0.24689
            42  u d 0u00 d000  -0.49688 0.24689
            45  u d 0u00 000d   0.06344 0.00403
            60  2 0 0000 ud00  -0.34449 0.11867
            71  0 2 0000 ud00   0.35172 0.12371
           147  u d 000u 0d00   0.06344 0.00403

      printout of CI-coefficients larger than  0.05 for root 10
      energy=    -108.142882
      conf/sym  2 3 6666 7777     Coeff  Weight
             3  0 2 2000 0000  -0.13025 0.01696
             4  2 0 ud00 0000  -0.35458 0.12573
             5  0 2 ud00 0000   0.37679 0.14197
            21  0 2 u00d 0000  -0.06870 0.00472
            35  u d u000 0d00  -0.43870 0.19246
            41  u u d000 000d  -0.06774 0.00459
            42  u d 0u00 d000   0.43870 0.19246
            45  u d 0u00 000d  -0.05546 0.00308
            59  2 0 0000 2000   0.13025 0.01696
            60  2 0 0000 ud00  -0.37679 0.14197
            65  2 0 0000 u00d   0.06870 0.00472
            71  0 2 0000 ud00   0.35458 0.12573
           147  u d 000u 0d00   0.05546 0.00308
           168  u u 000d d000   0.06774 0.00459

      Natural orbitals and occupation numbers for root  1
      sym 2:   1.930933
      sym 3:   1.930933
      sym 6:   0.068685   0.000000   0.000370   0.000012
      sym 7:   0.068685   0.000000   0.000370   0.000012

      Natural orbitals and occupation numbers for root  2
      sym 2:   1.005939
      sym 3:   1.005939
      sym 6:   0.991723   0.000003   0.000115   0.002219
      sym 7:   0.991723   0.000003   0.000115   0.002219

      Natural orbitals and occupation numbers for root  3
      sym 2:   0.999656
      sym 3:   0.999656
      sym 6:   0.997467   0.000007   0.000191   0.002679
      sym 7:   0.997467   0.000007   0.000191   0.002679

      Natural orbitals and occupation numbers for root  4
      sym 2:   0.999519
      sym 3:   0.999519
      sym 6:   0.992348   0.000032   0.000708   0.007393
      sym 7:   0.992348   0.000032   0.000708   0.007393

      Natural orbitals and occupation numbers for root  5
      sym 2:   1.000415
      sym 3:   1.000415
      sym 6:   0.994027   0.000035   0.000289   0.005235
      sym 7:   0.994027   0.000035   0.000289   0.005235

      Natural orbitals and occupation numbers for root  6
      sym 2:   0.995301
      sym 3:   0.995301
      sym 6:   0.863302   0.134007   0.000249   0.007141
      sym 7:   0.863301   0.134007   0.000249   0.007141

      Natural orbitals and occupation numbers for root  7
      sym 2:   0.997194
      sym 3:   0.997194
      sym 6:   0.451515   0.550757   0.000022   0.000512
      sym 7:   0.451515   0.550757   0.000022   0.000512

      Natural orbitals and occupation numbers for root  8
      sym 2:   0.997266
      sym 3:   0.997266
      sym 6:   0.645991   0.334034   0.000314   0.022395
      sym 7:   0.645991   0.334034   0.000314   0.022395

      Natural orbitals and occupation numbers for root  9
      sym 2:   0.998977
      sym 3:   0.998977
      sym 6:   0.444327   0.556055   0.000039   0.000602
      sym 7:   0.444327   0.556055   0.000039   0.000602

      Natural orbitals and occupation numbers for root 10
      sym 2:   0.998730
      sym 3:   0.998730
      sym 6:   0.590045   0.399065   0.000348   0.011813
      sym 7:   0.590045   0.399065   0.000348   0.011813

      ************************************************************************************************************************
      *                                                                                                                      *
      *                                                    Final results                                                     *
      *                                                                                                                      *
      ************************************************************************************************************************


++    Wave function specifications:
      -----------------------------

      Number of closed shell electrons          10
      Number of electrons in active shells       4
      Max number of holes in RAS1 space          0
      Max nr of electrons in RAS3 space          0
      Number of inactive orbitals                5
      Number of active orbitals                 10
      Number of secondary orbitals             104
      Spin quantum number                      0.0
      State symmetry                             1
--

++    Orbital specifications:
      -----------------------

      Symmetry species                           1   2   3   4   5   6   7   8
                                                ag b3u b2u b1g b1u b2g b3g  au
      Frozen orbitals                            0   0   0   0   0   0   0   0
      Inactive orbitals                          3   0   0   0   2   0   0   0
      Active orbitals                            0   1   1   0   0   4   4   0
      RAS1 orbitals                              0   0   0   0   0   0   0   0
      RAS2 orbitals                              0   1   1   0   0   4   4   0
      RAS3 orbitals                              0   0   0   0   0   0   0   0
      Secondary orbitals                        25  13  13   8  20  10  10   5
      Deleted orbitals                           0   0   0   0   0   0   0   0
      Number of basis functions                 28  14  14   8  22  14  14   5
--

++    CI expansion specifications:
      ----------------------------

      Number of CSFs                           249
      Number of determinants                   303
      Number of root(s) required                10
      CI roots used                              1     2     3     4     5     6     7     8     9    10
      weights                                0.100 0.100 0.100 0.100 0.100 0.100 0.100 0.100 0.100 0.100
      highest root included in the CI           10
      Root passed to geometry opt.              10
--

++    Final optimization conditions:
      ------------------------------

      Average CI energy                            -108.32447937
      RASSCF energy for state 10                   -108.14288245
      Super-CI energy                                -0.00000000
      RASSCF energy change                            0.00000000
      Max change in MO coefficients               0.157E-01
      Max non-diagonal density matrix element    -0.242E-03
      Maximum BLB matrix element                  0.185E-05
      (orbital pair   1,   2 in symmetry   3)
      Norm of electronic gradient            0.151E+00
--


      Final state energy(ies):
      ------------------------

::    RASSCF root number  1 Total energy:   -109.05291534
::    RASSCF root number  2 Total energy:   -108.43678870
::    RASSCF root number  3 Total energy:   -108.36844044
::    RASSCF root number  4 Total energy:   -108.28308501
::    RASSCF root number  5 Total energy:   -108.24296694
::    RASSCF root number  6 Total energy:   -108.20890627
::    RASSCF root number  7 Total energy:   -108.18634296
::    RASSCF root number  8 Total energy:   -108.17806029
::    RASSCF root number  9 Total energy:   -108.14440529
::    RASSCF root number 10 Total energy:   -108.14288245

++    Molecular orbitals:
      -------------------

      Pseudonatural active orbitals and approximate occupation numbers




      Molecular orbitals for symmetry species 1: ag 


      Orbital                 1         2         3         4         5         6         7         8         9        10
      Energy           -15.8234   -1.6446   -0.7541    0.0020    0.0289    0.0466    0.0469    0.0959    0.1253    0.1339
      Occ. No.           2.0000    2.0000    2.0000    0.0000    0.0000    0.0000    0.0000    0.0000    0.0000    0.0000

     1 N1     1s         0.9998   -0.0243    0.0092   -0.0025   -0.0029   -0.0000    0.0091    0.0038   -0.0152    0.0000
     2 N1     1s         0.0027    0.8904    0.4021   -0.0761   -0.1050   -0.0000    0.0359    0.1692   -0.0382   -0.0000
     3 N1     1s         0.0024   -0.0057    0.0006   -0.0007   -0.0021   -0.0000    0.0042   -0.0016   -0.0107    0.0000
     4 N1     1s         0.0010   -0.2016    0.2156   -0.0499   -0.1137   -0.0000    0.3989   -0.0912   -0.9189    0.0000
     5 N1     1s         0.0025    0.0128    0.1193   -0.9392    3.0382   -0.0000    5.3320    6.9931  -14.0777    0.0000
     6 N1     2pz       -0.0116   -0.5268    0.9787   -0.0606   -0.0774    0.0000   -0.0165    0.1077   -0.0709    0.0000
     7 N1     2pz        0.0066    0.0514   -0.0657    0.0038   -0.0002    0.0000   -0.0228   -0.0039    0.0606   -0.0000
     8 N1     2pz        0.0070    0.1962   -0.1405   -0.0140    0.0125   -0.0000    0.2241    0.0070   -0.4957    0.0000
     9 N1     2pz        0.0100    0.0892    0.1866   -0.9789    3.1861   -0.0000    7.7676    6.2124  -19.8111    0.0000
    10 N1     3d0        0.0010    0.0344   -0.0321    0.0002    0.0010   -0.0000    0.0026    0.0029    0.0025   -0.0000
    11 N1     3d0       -0.0021    0.0341   -0.0382   -0.0011   -0.0094    0.0000   -0.0079    0.0033    0.0467   -0.0000
    12 N1     3d0       -0.0006   -0.0346    0.0067   -0.0187    0.0613    0.0000   -0.1433    0.2381    0.2704   -0.0000
    13 N1     3d2+       0.0000   -0.0000   -0.0000    0.0000    0.0000   -0.0010   -0.0000   -0.0000   -0.0000   -0.0082
    14 N1     3d2+       0.0000   -0.0000   -0.0000    0.0000    0.0000    0.0163    0.0000    0.0000    0.0000    0.0144
    15 N1     3d2+       0.0000    0.0000    0.0000   -0.0000   -0.0000   -0.0808   -0.0000   -0.0000   -0.0000   -0.2335
    16 N1     4f0        0.0004   -0.0137    0.0094   -0.0004    0.0013    0.0000   -0.0003    0.0028   -0.0019    0.0000
    17 N1     4f0        0.0009    0.0033   -0.0032    0.0027   -0.0018   -0.0000    0.0153   -0.0224   -0.0373    0.0000
    18 N1     4f2+       0.0000    0.0000   -0.0000    0.0000    0.0000    0.0002    0.0000   -0.0000   -0.0000    0.0006
    19 N1     4f2+       0.0000    0.0000    0.0000   -0.0000   -0.0000   -0.0004    0.0000    0.0000    0.0000    0.0051
    20 X1     1s        -0.0034   -0.0231   -0.1176    1.6879   -6.1305    0.0000   -7.2626  -14.5832   18.1528   -0.0000
    21 X1     1s        -0.0002   -0.0039    0.0215   -1.5102    6.8113   -0.0000    2.6547    9.7302   -5.1867    0.0000
    22 X1     1s         0.0002    0.0017   -0.0038    1.7786   -3.5914    0.0000   -0.6822   -3.0962    1.0673    0.0000
    23 X1     3d0       -0.0022    0.0051   -0.0575    0.1158   -0.4823    0.0000   -0.6009   -0.9802    1.7868   -0.0000
    24 X1     3d0       -0.0024   -0.0315   -0.0369    0.3340   -1.1314    0.0000   -3.4246   -1.7863    8.5401   -0.0000
    25 X1     3d0        0.0002    0.0050    0.0016   -0.1190    0.1630   -0.0000    1.9035    0.0166   -2.0767    0.0000
    26 X1     3d2+      -0.0000   -0.0000   -0.0000    0.0000    0.0000    0.3830    0.0000    0.0000    0.0000    0.8626
    27 X1     3d2+       0.0000    0.0000    0.0000   -0.0000   -0.0000   -0.8005   -0.0000   -0.0000   -0.0000   -2.4754
    28 X1     3d2+      -0.0000   -0.0000   -0.0000    0.0000    0.0000    1.4644    0.0000    0.0000    0.0000    1.4356



      Molecular orbitals for symmetry species 2: b3u


      Orbital                 1         2         3         4
      Energy             0.0000    0.0091    0.0318    0.0873
      Occ. No.           1.0924    0.0000    0.0000    0.0000

     1 N1     2px        0.9564   -0.0275    0.0693   -0.1128
     2 N1     2px       -0.0177   -0.0044   -0.0083   -0.0273
     3 N1     2px       -0.1151    0.0117    0.0469    0.0763
     4 N1     2px       -0.0230   -0.0990   -0.3094   -0.7368
     5 N1     3d1+      -0.0310    0.0012   -0.0028    0.0051
     6 N1     3d1+      -0.0526    0.0031   -0.0080    0.0134
     7 N1     3d1+      -0.0022    0.0006    0.0100    0.0031
     8 N1     4f1+       0.0122   -0.0003    0.0017   -0.0011
     9 N1     4f1+       0.0009   -0.0004   -0.0018   -0.0023
    10 N1     4f3+      -0.0008    0.0000   -0.0000    0.0000
    11 N1     4f3+      -0.0007    0.0000   -0.0000    0.0000
    12 X1     2px        0.0378    0.5282    1.2381    4.2230
    13 X1     2px       -0.0226   -0.9208   -3.2081   -4.4231
    14 X1     2px        0.0071    1.5159    2.0052    1.6477



      Molecular orbitals for symmetry species 3: b2u


      Orbital                 1         2         3         4
      Energy             0.0000    0.0091    0.0318    0.0873
      Occ. No.           1.0924    0.0000    0.0000    0.0000

     1 N1     2py        0.9564   -0.0275    0.0693   -0.1128
     2 N1     2py       -0.0177   -0.0044   -0.0083   -0.0273
     3 N1     2py       -0.1151    0.0117    0.0469    0.0763
     4 N1     2py       -0.0230   -0.0990   -0.3094   -0.7368
     5 N1     3d1-      -0.0310    0.0012   -0.0028    0.0051
     6 N1     3d1-      -0.0526    0.0031   -0.0080    0.0134
     7 N1     3d1-      -0.0022    0.0006    0.0100    0.0031
     8 N1     4f3-       0.0008   -0.0000    0.0000   -0.0000
     9 N1     4f3-       0.0007   -0.0000    0.0000   -0.0000
    10 N1     4f1-       0.0122   -0.0003    0.0017   -0.0011
    11 N1     4f1-       0.0009   -0.0004   -0.0018   -0.0023
    12 X1     2py        0.0378    0.5282    1.2381    4.2230
    13 X1     2py       -0.0226   -0.9208   -3.2081   -4.4231
    14 X1     2py        0.0071    1.5159    2.0052    1.6477



      Molecular orbitals for symmetry species 4: b1g


      Orbital                 1         2
      Energy             0.0466    0.1339
      Occ. No.           0.0000    0.0000

     1 N1     3d2-      -0.0010   -0.0082
     2 N1     3d2-       0.0163    0.0144
     3 N1     3d2-      -0.0808   -0.2336
     4 N1     4f2-       0.0002    0.0006
     5 N1     4f2-      -0.0004    0.0051
     6 X1     3d2-       0.3830    0.8626
     7 X1     3d2-      -0.8005   -2.4753
     8 X1     3d2-       1.4644    1.4356



      Molecular orbitals for symmetry species 5: b1u


      Orbital                 1         2         3         4         5
      Energy           -15.8206   -0.9076    0.0103    0.0350    0.0910
      Occ. No.           2.0000    2.0000    0.0000    0.0000    0.0000

     1 N1     1s         0.9984    0.0089   -0.0010   -0.0006   -0.0050
     2 N1     1s        -0.0039    0.9695   -0.0298   -0.0660   -0.1345
     3 N1     1s         0.0018   -0.0004   -0.0005   -0.0024   -0.0030
     4 N1     1s         0.0168    0.3803    0.2221   -0.1395    1.4534
     5 N1     1s         0.0032    0.0861    1.9257   -2.5772   13.0544
     6 N1     2pz       -0.0083    0.4335   -0.0077   -0.0210   -0.0315
     7 N1     2pz        0.0056   -0.0375   -0.0080   -0.0003   -0.0512
     8 N1     2pz       -0.0041   -0.2134   -0.1327    0.0314   -0.8718
     9 N1     2pz       -0.0007   -0.0179   -0.7813    1.2435   -5.3588
    10 N1     3d0        0.0010   -0.0090    0.0007    0.0012    0.0032
    11 N1     3d0        0.0001   -0.0156    0.0063    0.0101    0.0379
    12 N1     3d0        0.0010    0.0200    0.0389   -0.0411    0.2467
    13 N1     3d2+       0.0000   -0.0000    0.0000    0.0000    0.0000
    14 N1     3d2+       0.0000    0.0000   -0.0000   -0.0000   -0.0000
    15 N1     3d2+      -0.0000   -0.0000    0.0000    0.0000    0.0000
    16 N1     4f0       -0.0007    0.0002   -0.0002   -0.0015   -0.0014
    17 N1     4f0        0.0002    0.0027   -0.0034    0.0045   -0.0198
    18 N1     4f2+      -0.0000   -0.0000    0.0000    0.0000    0.0000
    19 N1     4f2+       0.0000    0.0000   -0.0000   -0.0000   -0.0000
    20 X1     2pz        0.0001    0.0101    0.9507   -1.9972    6.7920
    21 X1     2pz       -0.0000   -0.0056   -1.2587    3.6922   -5.2976
    22 X1     2pz        0.0000    0.0017    1.6735   -2.0878    1.7792



      Molecular orbitals for symmetry species 6: b2g


      Orbital                 1         2         3         4
      Energy             0.0000    0.0000    0.0000    0.0000
      Occ. No.           0.6932    0.2007    0.0005    0.0132

     1 N1     2px        1.0860   -0.1120    1.7726   -0.9668
     2 N1     2px        0.0147    0.0018   -0.7165    0.0507
     3 N1     2px        0.2731    0.1990   -1.7442    0.7164
     4 N1     2px        0.4170    5.2832   -5.4229   -2.9331
     5 N1     3d1+       0.0074    0.0010   -0.0918    0.0092
     6 N1     3d1+       0.0069   -0.0185   -0.6248    0.1120
     7 N1     3d1+      -0.0426   -0.0870   -0.1369    0.1010
     8 N1     4f1+      -0.0061    0.0013    0.0062    0.0137
     9 N1     4f1+      -0.0041    0.0137    0.2306   -0.0416
    10 N1     4f3+      -0.0011   -0.0004    0.1309    0.0046
    11 N1     4f3+      -0.0016   -0.0002    0.0889    0.0129
    12 X1     3d1+      -0.0076   -0.3415    1.2884    0.7115
    13 X1     3d1+      -0.0287   -1.7519    1.9898    1.3271
    14 X1     3d1+      -0.0298    1.4249   -0.8035   -0.7825



      Molecular orbitals for symmetry species 7: b3g


      Orbital                 1         2         3         4
      Energy             0.0000    0.0000    0.0000    0.0000
      Occ. No.           0.6932    0.2007    0.0005    0.0132

     1 N1     2py        1.0860   -0.1120    1.7726   -0.9668
     2 N1     2py        0.0147    0.0018   -0.7165    0.0507
     3 N1     2py        0.2731    0.1990   -1.7442    0.7164
     4 N1     2py        0.4170    5.2832   -5.4229   -2.9331
     5 N1     3d1-       0.0074    0.0010   -0.0918    0.0092
     6 N1     3d1-       0.0069   -0.0185   -0.6248    0.1120
     7 N1     3d1-      -0.0426   -0.0870   -0.1369    0.1009
     8 N1     4f3-       0.0011    0.0004   -0.1309   -0.0046
     9 N1     4f3-       0.0016    0.0002   -0.0889   -0.0129
    10 N1     4f1-      -0.0061    0.0013    0.0062    0.0137
    11 N1     4f1-      -0.0041    0.0137    0.2306   -0.0416
    12 X1     3d1-      -0.0076   -0.3415    1.2884    0.7115
    13 X1     3d1-      -0.0287   -1.7519    1.9898    1.3271
    14 X1     3d1-      -0.0298    1.4249   -0.8035   -0.7825
--

      Von Neumann Entropy (Root  1) =  0.43678


      Mulliken population analysis for root number:  1
      -----------------------------------------------


++    Molecular charges:
      ------------------

      Mulliken charges per centre and basis function type
      ---------------------------------------------------

                N1      X1    
      1s       4.0988 -0.0944
      2px      0.9645  0.0096
      2pz      0.9505  0.0037
      2py      0.9645  0.0096
      3d2+     0.0000  0.0000
      3d1+     0.0292 -0.0024
      3d0      0.0116 -0.0380
      3d1-     0.0292 -0.0024
      3d2-     0.0000  0.0000
      4f3+     0.0000  0.0000
      4f2+     0.0000  0.0000
      4f1+     0.0027  0.0000
      4f0      0.0034  0.0000
      4f1-     0.0027  0.0000
      4f2-     0.0000  0.0000
      4f3-     0.0000  0.0000
      Total    7.0572 -0.1143

      N-E     -0.0572  0.1143

      Total electronic charge=   14.000000

      Total            charge=   -0.000000
--



      Expectation values of various properties for root number:  1
      -----------------------------------------------------------


++    Molecular properties:
      ---------------------

      Charge (e):
                      =   -0.0000
      Dipole Moment (Debye):
      Origin of the operator (Ang)=    0.0000    0.0000    0.0000
                   X=  0.0000E+00               Y=  0.0000E+00               Z=  0.0000E+00           Total=  0.0000E+00
      Quadrupole Moment (Debye*Ang):
      Origin of the operator (Ang)=    0.0000    0.0000    0.0000
                  XX= -9.4968E+00              XY=  0.0000E+00              XZ=  0.0000E+00              YY= -9.4968E+00
                  YZ=  0.0000E+00              ZZ= -1.0505E+01
      In traceless form (Debye*Ang)
                  XX=  5.0414E-01              XY=  0.0000E+00              XZ=  0.0000E+00              YY=  5.0414E-01
                  YZ=  0.0000E+00              ZZ= -1.0083E+00
--

      Von Neumann Entropy (Root  2) =  2.02443


      Mulliken population analysis for root number:  2
      -----------------------------------------------


++    Molecular charges:
      ------------------

      Mulliken charges per centre and basis function type
      ---------------------------------------------------

                N1      X1    
      1s       4.0988 -0.0944
      2px      1.0018  0.0050
      2pz      0.9505  0.0037
      2py      1.0018  0.0050
      3d2+     0.0000  0.0000
      3d1+     0.0065 -0.0300
      3d0      0.0116 -0.0380
      3d1-     0.0065 -0.0300
      3d2-     0.0000  0.0000
      4f3+     0.0000  0.0000
      4f2+     0.0000  0.0000
      4f1+     0.0043  0.0000
      4f0      0.0034  0.0000
      4f1-     0.0043  0.0000
      4f2-     0.0000  0.0000
      4f3-     0.0000  0.0000
      Total    7.0893 -0.1786

      N-E     -0.0893  0.1786

      Total electronic charge=   14.000000

      Total            charge=   -0.000000
--



      Expectation values of various properties for root number:  2
      -----------------------------------------------------------


++    Molecular properties:
      ---------------------

      Charge (e):
                      =   -0.0000
      Dipole Moment (Debye):
      Origin of the operator (Ang)=    0.0000    0.0000    0.0000
                   X=  0.0000E+00               Y=  0.0000E+00               Z=  0.0000E+00           Total=  0.0000E+00
      Quadrupole Moment (Debye*Ang):
      Origin of the operator (Ang)=    0.0000    0.0000    0.0000
                  XX= -1.0150E+01              XY=  0.0000E+00              XZ=  0.0000E+00              YY= -1.0150E+01
                  YZ=  0.0000E+00              ZZ= -1.3793E+01
      In traceless form (Debye*Ang)
                  XX=  1.8214E+00              XY=  0.0000E+00              XZ=  0.0000E+00              YY=  1.8214E+00
                  YZ=  0.0000E+00              ZZ= -3.6429E+00
--

      Von Neumann Entropy (Root  3) =  2.02951


      Mulliken population analysis for root number:  3
      -----------------------------------------------


++    Molecular charges:
      ------------------

      Mulliken charges per centre and basis function type
      ---------------------------------------------------

                N1      X1    
      1s       4.0988 -0.0944
      2px      0.9980  0.0050
      2pz      0.9505  0.0037
      2py      0.9980  0.0050
      3d2+     0.0000  0.0000
      3d1+     0.0060 -0.0214
      3d0      0.0116 -0.0380
      3d1-     0.0060 -0.0214
      3d2-     0.0000  0.0000
      4f3+     0.0000  0.0000
      4f2+     0.0000  0.0000
      4f1+     0.0041  0.0000
      4f0      0.0034  0.0000
      4f1-     0.0041  0.0000
      4f2-     0.0000  0.0000
      4f3-     0.0000  0.0000
      Total    7.0808 -0.1616

      N-E     -0.0808  0.1616

      Total electronic charge=   14.000000

      Total            charge=   -0.000000
--



      Expectation values of various properties for root number:  3
      -----------------------------------------------------------


++    Molecular properties:
      ---------------------

      Charge (e):
                      =   -0.0000
      Dipole Moment (Debye):
      Origin of the operator (Ang)=    0.0000    0.0000    0.0000
                   X=  0.0000E+00               Y=  0.0000E+00               Z=  0.0000E+00           Total=  0.0000E+00
      Quadrupole Moment (Debye*Ang):
      Origin of the operator (Ang)=    0.0000    0.0000    0.0000
                  XX= -1.0322E+01              XY=  0.0000E+00              XZ=  0.0000E+00              YY= -1.0322E+01
                  YZ=  0.0000E+00              ZZ= -1.4057E+01
      In traceless form (Debye*Ang)
                  XX=  1.8671E+00              XY=  0.0000E+00              XZ=  0.0000E+00              YY=  1.8671E+00
                  YZ=  0.0000E+00              ZZ= -3.7342E+00
--

      Von Neumann Entropy (Root  4) =  2.07191


      Mulliken population analysis for root number:  4
      -----------------------------------------------


++    Molecular charges:
      ------------------

      Mulliken charges per centre and basis function type
      ---------------------------------------------------

                N1      X1    
      1s       4.0988 -0.0944
      2px      0.9936  0.0050
      2pz      0.9505  0.0037
      2py      0.9936  0.0050
      3d2+     0.0000  0.0000
      3d1+     0.0058 -0.0119
      3d0      0.0116 -0.0380
      3d1-     0.0058 -0.0119
      3d2-     0.0000  0.0000
      4f3+     0.0000  0.0000
      4f2+     0.0000  0.0000
      4f1+     0.0040  0.0000
      4f0      0.0034  0.0000
      4f1-     0.0040  0.0000
      4f2-     0.0000  0.0000
      4f3-     0.0000  0.0000
      Total    7.0712 -0.1425

      N-E     -0.0712  0.1425

      Total electronic charge=   14.000000

      Total            charge=   -0.000000
--



      Expectation values of various properties for root number:  4
      -----------------------------------------------------------


++    Molecular properties:
      ---------------------

      Charge (e):
                      =   -0.0000
      Dipole Moment (Debye):
      Origin of the operator (Ang)=    0.0000    0.0000    0.0000
                   X=  0.0000E+00               Y=  0.0000E+00               Z=  0.0000E+00           Total=  0.0000E+00
      Quadrupole Moment (Debye*Ang):
      Origin of the operator (Ang)=    0.0000    0.0000    0.0000
                  XX= -1.0721E+01              XY=  0.0000E+00              XZ=  0.0000E+00              YY= -1.0721E+01
                  YZ=  0.0000E+00              ZZ= -1.4635E+01
      In traceless form (Debye*Ang)
                  XX=  1.9572E+00              XY=  0.0000E+00              XZ=  0.0000E+00              YY=  1.9572E+00
                  YZ=  0.0000E+00              ZZ= -3.9145E+00
--

      Von Neumann Entropy (Root  5) =  2.05156


      Mulliken population analysis for root number:  5
      -----------------------------------------------


++    Molecular charges:
      ------------------

      Mulliken charges per centre and basis function type
      ---------------------------------------------------

                N1      X1    
      1s       4.0988 -0.0944
      2px      0.9889  0.0050
      2pz      0.9505  0.0037
      2py      0.9889  0.0050
      3d2+     0.0000  0.0000
      3d1+     0.0049  0.0000
      3d0      0.0116 -0.0380
      3d1-     0.0049  0.0000
      3d2-     0.0000  0.0000
      4f3+     0.0000  0.0000
      4f2+     0.0000  0.0000
      4f1+     0.0037  0.0000
      4f0      0.0034  0.0000
      4f1-     0.0037  0.0000
      4f2-     0.0000  0.0000
      4f3-     0.0000  0.0000
      Total    7.0593 -0.1187

      N-E     -0.0593  0.1187

      Total electronic charge=   14.000000

      Total            charge=   -0.000000
--



      Expectation values of various properties for root number:  5
      -----------------------------------------------------------


++    Molecular properties:
      ---------------------

      Charge (e):
                      =   -0.0000
      Dipole Moment (Debye):
      Origin of the operator (Ang)=    0.0000    0.0000    0.0000
                   X=  0.0000E+00               Y=  0.0000E+00               Z=  0.0000E+00           Total=  0.0000E+00
      Quadrupole Moment (Debye*Ang):
      Origin of the operator (Ang)=    0.0000    0.0000    0.0000
                  XX= -1.0789E+01              XY=  0.0000E+00              XZ=  0.0000E+00              YY= -1.0789E+01
                  YZ=  0.0000E+00              ZZ= -1.4725E+01
      In traceless form (Debye*Ang)
                  XX=  1.9680E+00              XY=  0.0000E+00              XZ=  0.0000E+00              YY=  1.9680E+00
                  YZ=  0.0000E+00              ZZ= -3.9360E+00
--

      Von Neumann Entropy (Root  6) =  2.63231


      Mulliken population analysis for root number:  6
      -----------------------------------------------


++    Molecular charges:
      ------------------

      Mulliken charges per centre and basis function type
      ---------------------------------------------------

                N1      X1    
      1s       4.0988 -0.0944
      2px      1.0180  0.0049
      2pz      0.9505  0.0037
      2py      1.0180  0.0049
      3d2+     0.0000  0.0000
      3d1+    -0.0020 -0.0417
      3d0      0.0116 -0.0380
      3d1-    -0.0020 -0.0417
      3d2-     0.0000  0.0000
      4f3+     0.0000  0.0000
      4f2+     0.0000  0.0000
      4f1+     0.0024  0.0000
      4f0      0.0034  0.0000
      4f1-     0.0024  0.0000
      4f2-     0.0000  0.0000
      4f3-     0.0000  0.0000
      Total    7.1011 -0.2022

      N-E     -0.1011  0.2022

      Total electronic charge=   14.000000

      Total            charge=   -0.000000
--



      Expectation values of various properties for root number:  6
      -----------------------------------------------------------


++    Molecular properties:
      ---------------------

      Charge (e):
                      =   -0.0000
      Dipole Moment (Debye):
      Origin of the operator (Ang)=    0.0000    0.0000    0.0000
                   X=  0.0000E+00               Y=  0.0000E+00               Z=  0.0000E+00           Total=  0.0000E+00
      Quadrupole Moment (Debye*Ang):
      Origin of the operator (Ang)=    0.0000    0.0000    0.0000
                  XX= -2.0119E+01              XY=  0.0000E+00              XZ=  0.0000E+00              YY= -2.0119E+01
                  YZ=  0.0000E+00              ZZ= -2.8769E+01
      In traceless form (Debye*Ang)
                  XX=  4.3249E+00              XY=  0.0000E+00              XZ=  0.0000E+00              YY=  4.3249E+00
                  YZ=  0.0000E+00              ZZ= -8.6498E+00
--

      Von Neumann Entropy (Root  7) =  3.00188


      Mulliken population analysis for root number:  7
      -----------------------------------------------


++    Molecular charges:
      ------------------

      Mulliken charges per centre and basis function type
      ---------------------------------------------------

                N1      X1    
      1s       4.0988 -0.0944
      2px      0.9990  0.0049
      2pz      0.9505  0.0037
      2py      0.9990  0.0049
      3d2+     0.0000  0.0000
      3d1+     0.0045 -0.0162
      3d0      0.0116 -0.0380
      3d1-     0.0045 -0.0162
      3d2-     0.0000  0.0000
      4f3+     0.0000  0.0000
      4f2+     0.0000  0.0000
      4f1+     0.0022  0.0000
      4f0      0.0034  0.0000
      4f1-     0.0022  0.0000
      4f2-     0.0000  0.0000
      4f3-     0.0000  0.0000
      Total    7.0756 -0.1512

      N-E     -0.0756  0.1512

      Total electronic charge=   14.000000

      Total            charge=   -0.000000
--



      Expectation values of various properties for root number:  7
      -----------------------------------------------------------


++    Molecular properties:
      ---------------------

      Charge (e):
                      =   -0.0000
      Dipole Moment (Debye):
      Origin of the operator (Ang)=    0.0000    0.0000    0.0000
                   X=  0.0000E+00               Y=  0.0000E+00               Z=  0.0000E+00           Total=  0.0000E+00
      Quadrupole Moment (Debye*Ang):
      Origin of the operator (Ang)=    0.0000    0.0000    0.0000
                  XX= -4.8551E+01              XY=  0.0000E+00              XZ=  0.0000E+00              YY= -4.8551E+01
                  YZ=  0.0000E+00              ZZ= -7.2027E+01
      In traceless form (Debye*Ang)
                  XX=  1.1738E+01              XY=  0.0000E+00              XZ=  0.0000E+00              YY=  1.1738E+01
                  YZ=  0.0000E+00              ZZ= -2.3476E+01
--

      Von Neumann Entropy (Root  8) =  3.06599


      Mulliken population analysis for root number:  8
      -----------------------------------------------


++    Molecular charges:
      ------------------

      Mulliken charges per centre and basis function type
      ---------------------------------------------------

                N1      X1    
      1s       4.0988 -0.0944
      2px      0.9348  0.0049
      2pz      0.9505  0.0037
      2py      0.9348  0.0049
      3d2+     0.0000  0.0000
      3d1+     0.0102  0.0996
      3d0      0.0116 -0.0380
      3d1-     0.0102  0.0996
      3d2-     0.0000  0.0000
      4f3+     0.0000  0.0000
      4f2+     0.0000  0.0000
      4f1+     0.0027  0.0000
      4f0      0.0034  0.0000
      4f1-     0.0027  0.0000
      4f2-     0.0000  0.0000
      4f3-     0.0000  0.0000
      Total    6.9598  0.0805

      N-E      0.0402 -0.0805

      Total electronic charge=   14.000000

      Total            charge=   -0.000000
--



      Expectation values of various properties for root number:  8
      -----------------------------------------------------------


++    Molecular properties:
      ---------------------

      Charge (e):
                      =   -0.0000
      Dipole Moment (Debye):
      Origin of the operator (Ang)=    0.0000    0.0000    0.0000
                   X=  0.0000E+00               Y=  0.0000E+00               Z=  0.0000E+00           Total=  0.0000E+00
      Quadrupole Moment (Debye*Ang):
      Origin of the operator (Ang)=    0.0000    0.0000    0.0000
                  XX= -4.1734E+01              XY=  0.0000E+00              XZ=  0.0000E+00              YY= -4.1734E+01
                  YZ=  0.0000E+00              ZZ= -6.1672E+01
      In traceless form (Debye*Ang)
                  XX=  9.9690E+00              XY=  0.0000E+00              XZ=  0.0000E+00              YY=  9.9690E+00
                  YZ=  0.0000E+00              ZZ= -1.9938E+01
--

      Von Neumann Entropy (Root  9) =  2.99930


      Mulliken population analysis for root number:  9
      -----------------------------------------------


++    Molecular charges:
      ------------------

      Mulliken charges per centre and basis function type
      ---------------------------------------------------

                N1      X1    
      1s       4.0988 -0.0944
      2px      0.9941  0.0050
      2pz      0.9505  0.0037
      2py      0.9941  0.0050
      3d2+     0.0000  0.0000
      3d1+     0.0053 -0.0083
      3d0      0.0116 -0.0380
      3d1-     0.0053 -0.0084
      3d2-     0.0000  0.0000
      4f3+     0.0000  0.0000
      4f2+     0.0000  0.0000
      4f1+     0.0023  0.0000
      4f0      0.0034  0.0000
      4f1-     0.0023  0.0000
      4f2-     0.0000  0.0000
      4f3-     0.0000  0.0000
      Total    7.0677 -0.1355

      N-E     -0.0677  0.1355

      Total electronic charge=   14.000000

      Total            charge=   -0.000000
--



      Expectation values of various properties for root number:  9
      -----------------------------------------------------------


++    Molecular properties:
      ---------------------

      Charge (e):
                      =   -0.0000
      Dipole Moment (Debye):
      Origin of the operator (Ang)=    0.0000    0.0000    0.0000
                   X=  0.0000E+00               Y=  0.0000E+00               Z=  0.0000E+00           Total=  0.0000E+00
      Quadrupole Moment (Debye*Ang):
      Origin of the operator (Ang)=    0.0000    0.0000    0.0000
                  XX= -4.8919E+01              XY=  0.0000E+00              XZ=  0.0000E+00              YY= -4.8919E+01
                  YZ=  0.0000E+00              ZZ= -7.2587E+01
      In traceless form (Debye*Ang)
                  XX=  1.1834E+01              XY=  0.0000E+00              XZ=  0.0000E+00              YY=  1.1834E+01
                  YZ=  0.0000E+00              ZZ= -2.3669E+01
--

      Von Neumann Entropy (Root 10) =  3.05944


      Mulliken population analysis for root number: 10
      -----------------------------------------------


++    Molecular charges:
      ------------------

      Mulliken charges per centre and basis function type
      ---------------------------------------------------

                N1      X1    
      1s       4.0988 -0.0944
      2px      0.9624  0.0050
      2pz      0.9505  0.0037
      2py      0.9624  0.0050
      3d2+     0.0000  0.0000
      3d1+     0.0081  0.0492
      3d0      0.0116 -0.0380
      3d1-     0.0081  0.0492
      3d2-     0.0000  0.0000
      4f3+     0.0000  0.0000
      4f2+     0.0000  0.0000
      4f1+     0.0024  0.0000
      4f0      0.0034  0.0000
      4f1-     0.0024  0.0000
      4f2-     0.0000  0.0000
      4f3-     0.0000  0.0000
      Total    7.0102 -0.0204

      N-E     -0.0102  0.0204

      Total electronic charge=   14.000000

      Total            charge=   -0.000000
--



      Expectation values of various properties for root number: 10
      -----------------------------------------------------------


++    Molecular properties:
      ---------------------

      Charge (e):
                      =   -0.0000
      Dipole Moment (Debye):
      Origin of the operator (Ang)=    0.0000    0.0000    0.0000
                   X=  0.0000E+00               Y=  0.0000E+00               Z=  0.0000E+00           Total=  0.0000E+00
      Quadrupole Moment (Debye*Ang):
      Origin of the operator (Ang)=    0.0000    0.0000    0.0000
                  XX= -4.8208E+01              XY=  0.0000E+00              XZ=  0.0000E+00              YY= -4.8208E+01
                  YZ=  0.0000E+00              ZZ= -7.1499E+01
      In traceless form (Debye*Ang)
                  XX=  1.1645E+01              XY=  0.0000E+00              XZ=  0.0000E+00              YY=  1.1645E+01
                  YZ=  0.0000E+00              ZZ= -2.3291E+01
--


  Input file to MOLDEN was generated!


  Input file to MOLDEN was generated!


  Input file to MOLDEN was generated!


  Input file to MOLDEN was generated!


  Input file to MOLDEN was generated!


  Input file to MOLDEN was generated!


  Input file to MOLDEN was generated!


  Input file to MOLDEN was generated!


  Input file to MOLDEN was generated!


  Input file to MOLDEN was generated!


  Input file to MOLDEN was generated!

      Average orbitals are written to the RASORB file
      Natural orbitals for root   1 are written to the RASORB.1 file
      Natural orbitals for root   2 are written to the RASORB.2 file
      Natural orbitals for root   3 are written to the RASORB.3 file
      Natural orbitals for root   4 are written to the RASORB.4 file
      Natural orbitals for root   5 are written to the RASORB.5 file
      Natural orbitals for root   6 are written to the RASORB.6 file
      Natural orbitals for root   7 are written to the RASORB.7 file
      Natural orbitals for root   8 are written to the RASORB.8 file
      Natural orbitals for root   9 are written to the RASORB.9 file
      Natural orbitals for root  10 are written to the RASORB.10 file
      Spin density orbitals for root   1 are written to the SPDORB.1 file
      Spin density orbitals for root   2 are written to the SPDORB.2 file
      Spin density orbitals for root   3 are written to the SPDORB.3 file
      Spin density orbitals for root   4 are written to the SPDORB.4 file
      Spin density orbitals for root   5 are written to the SPDORB.5 file
      Spin density orbitals for root   6 are written to the SPDORB.6 file
      Spin density orbitals for root   7 are written to the SPDORB.7 file
      Spin density orbitals for root   8 are written to the SPDORB.8 file
      Spin density orbitals for root   9 are written to the SPDORB.9 file
      Spin density orbitals for root  10 are written to the SPDORB.10 file

 ###############################################################################
 ###############################################################################
 ###                                                                         ###
 ###                                                                         ###
 ###    WARNING: RunFile label BirthCertificate                              ###
 ###    was used       58 times                                              ###
 ###                                                                         ###
 ###                                                                         ###
 ###############################################################################
 ###############################################################################
 ###############################################################################
 ###############################################################################
 ###                                                                         ###
 ###                                                                         ###
 ###    WARNING: RunFile label nBas                                          ###
 ###    was used       57 times                                              ###
 ###                                                                         ###
 ###                                                                         ###
 ###############################################################################
 ###############################################################################
--- Stop Module: rasscf at Thu Jul 16 11:38:40 2020 /rc=_RC_ALL_IS_WELL_ ---
*** files: gs_ms.rasscf.molden gs_ms.rasscf.molden.1 gs_ms.rasscf.molden.2 gs_ms.rasscf.molden.3 gs_ms.rasscf.molden.4 gs_ms.rasscf.molden.5 gs_ms.rasscf.molden.6
           gs_ms.rasscf.molden.7 gs_ms.rasscf.molden.8 gs_ms.rasscf.molden.9 gs_ms.rasscf.molden.10 gs_ms.RasOrb gs_ms.RasOrb.1 gs_ms.RasOrb.2 gs_ms.RasOrb.3 gs_ms.RasOrb.4
           gs_ms.RasOrb.5 gs_ms.RasOrb.6 gs_ms.RasOrb.7 gs_ms.RasOrb.8 gs_ms.RasOrb.9 gs_ms.RasOrb.10 gs_ms.rasscf.h5 gs_ms.SpdOrb.1 gs_ms.SpdOrb.2 gs_ms.SpdOrb.3 gs_ms.SpdOrb.4
           gs_ms.SpdOrb.5 gs_ms.SpdOrb.6 gs_ms.SpdOrb.7 gs_ms.SpdOrb.8 gs_ms.SpdOrb.9 gs_ms.SpdOrb.10 xmldump
    saved to directory /home/gayverjr/OpenCAP/n2_molcas/full_N2_example/symmetry/gs
--- Module rasscf spent 9 seconds ---

--- Start Module: caspt2 at Thu Jul 16 11:38:41 2020 ---

()()()()()()()()()()()()()()()()()()()()()()()()()()()()()()()()()()()()()()()()()()()()()()()()()()

                                              &CASPT2

                                   only a single process is used
                       available to each process: 20 GB of memory, 16 threads
                                             pid: 46155
()()()()()()()()()()()()()()()()()()()()()()()()()()()()()()()()()()()()()()()()()()()()()()()()()()


++    Wave function specifications:
      -----------------------------

      Number of closed shell electrons           6
      Number of electrons in active shells       4
      Max number of holes in RAS1 space          0
      Max number of electrons in RAS3 space      0
      Number of inactive orbitals                3
      Number of active orbitals                 10
      Number of secondary orbitals             104
      Spin quantum number                      0.0
      State symmetry                             1
      Number of CSFs                           249
      Number of root(s) available               10
      Root passed to geometry opt.              10
      A file JOBMIX will be created
      This is a MULTI-STATE CASSCF reference
      Number of CI roots used                   10
      These are:                                 1   2   3   4   5   6   7   8   9  10
      Off-diagonal elements of Heff are computed
--

++    Orbital specifications:
      -----------------------

      Symmetry species                           1   2   3   4   5   6   7   8
                                                ag b3u b2u b1g b1u b2g b3g  au
      Frozen orbitals                            1   0   0   0   1   0   0   0
      Inactive orbitals                          2   0   0   0   1   0   0   0
      Active orbitals                            0   1   1   0   0   4   4   0
      Secondary orbitals                        25  13  13   8  20  10  10   5
      Deleted orbitals                           0   0   0   0   0   0   0   0
      Number of basis functions                 28  14  14   8  22  14  14   5
--

++    CASPT2 specifications:
      ----------------------

      Type of calculation                        MS-CASPT2
      Fock operator                              state-specific
      IPEA shift                                 0.25
      Real shift                                 0.00
      Imaginary shift                            0.00
      The input orbitals will be transformed to quasi-canonical
--

--------------------------------------------------------------------------------
 Estimated memory requirements:
  POLY3 :                   295530
  RHS:                      303898
  SIGMA :                   327264
  PRPCTL:                        0
 Available workspace:   2249977828

++ CASPT2 computation for group   1

********************************************************************************
 Multi-State initialization phase begins for group   1
--------------------------------------------------------------------------------
********************************************************************************
 Compute H0 matrices for state    1
--------------------------------------------------------------------------------
--------------------------------------------------------------------------------
 H0 matrices have been computed.

********************************************************************************
  CASPT2 EQUATION SOLUTION
--------------------------------------------------------------------------------

  Total nr of CASPT2 parameters:
   Before reduction:      138010
   After  reduction:      106784

 The contributions to the second order correlation energy in atomic units.
-----------------------------------------------------------------------------------------------------------------------------
  IT.      VJTU        VJTI        ATVX        AIVX        VJAI        BVAT        BJAT        BJAI        TOTAL       RNORM  
-----------------------------------------------------------------------------------------------------------------------------
   1     0.000000   -0.008868   -0.016356   -0.095046   -0.015258   -0.030456   -0.066100   -0.067482   -0.299566    0.011598
   2     0.000000   -0.008939   -0.016424   -0.095377   -0.015330   -0.030431   -0.066024   -0.067470   -0.299996    0.003104
   3     0.000000   -0.008937   -0.016466   -0.095471   -0.015323   -0.030438   -0.066042   -0.067480   -0.300158    0.000634
   4     0.000000   -0.008936   -0.016466   -0.095466   -0.015322   -0.030437   -0.066041   -0.067482   -0.300151    0.000152
   5     0.000000   -0.008937   -0.016464   -0.095462   -0.015321   -0.030437   -0.066040   -0.067482   -0.300143    0.000044
   6     0.000000   -0.008937   -0.016464   -0.095462   -0.015321   -0.030437   -0.066040   -0.067482   -0.300143    0.000012
   7     0.000000   -0.008937   -0.016464   -0.095462   -0.015321   -0.030437   -0.066040   -0.067482   -0.300144    0.000003
-----------------------------------------------------------------------------------------------------------------------------

  FINAL CASPT2 RESULT:

      Reference energy:        -109.0529153412
      E2 (Non-variational):      -0.3001436756
      E2 (Variational):          -0.3001436318
      Total energy:            -109.3530589730
      Residual norm:              0.0000009143
      Reference weight:           0.92171

      Contributions to the CASPT2 correlation energy
      Active & Virtual Only:         -0.0469014202
      One Inactive Excited:          -0.1615025301
      Two Inactive Excited:          -0.0917397252


++ Denominators, etc.
--------------------------------------------------------------------------------------------------------------
 Report on small energy denominators, large coefficients, and large energy contributions.
CASE  SYMM ACTIVE-MIX  NON-ACTIVE INDICES          DENOMINATOR     RHS VALUE       COEFFICIENT     CONTRIBUTION
VJTIP    1  Mu1.0006  In5.002 In5.002               1.74486061      0.06341877     -0.03702742     -0.00234823
VJTIP    1  Mu1.0010  In5.002 In5.002               1.98378294     -0.06948271      0.03440614     -0.00239063
ATVX     2  Mu2.0001  Se2.004                       0.52929743     -0.01578917      0.02607715     -0.00041174
ATVX     2  Mu2.0001  Se2.005                       0.68845914     -0.03507355      0.04425431     -0.00155216
ATVX     2  Mu2.0001  Se2.007                       1.29441987     -0.06669586      0.04448990     -0.00296729
ATVX     3  Mu3.0001  Se3.004                       0.52929672     -0.01578917      0.02607719     -0.00041174
ATVX     3  Mu3.0001  Se3.005                       0.68845843     -0.03507355      0.04425436     -0.00155216
ATVX     3  Mu3.0001  Se3.007                       1.29441916     -0.06669588      0.04448993     -0.00296730
AIVX     1  Mu1.0001  In1.003 Se1.012               0.79404050     -0.02413236      0.02578329     -0.00062221
AIVX     1  Mu1.0001  In1.003 Se1.014               1.04944014     -0.03611304      0.02922658     -0.00105546
AIVX     1  Mu1.0001  In1.003 Se1.017               1.68956879     -0.05747864      0.02930829     -0.00168460
AIVX     1  Mu1.0001  In5.002 Se5.010               1.47643435      0.05016966     -0.02997289     -0.00150373
AIVX     5  Mu5.0008  In1.002 Se5.011               3.19097556      0.09342792     -0.02921628     -0.00272962
AIVX     5  Mu5.0012  In1.002 Se5.011               3.41637338     -0.09664340      0.02856102     -0.00276023
AIVX     5  Mu5.0007  In1.003 Se5.011               2.37429256      0.08511685     -0.03635075     -0.00309406
AIVX     5  Mu5.0008  In1.003 Se5.011               2.38384656     -0.07331965      0.03103881     -0.00227575
AIVX     5  Mu5.0011  In1.003 Se5.011               2.59885399     -0.08202331      0.03146572     -0.00258092
AIVX     5  Mu5.0012  In1.003 Se5.011               2.60924439      0.09107590     -0.03511917     -0.00319851
BJAIP    1  Se5.011 In1.003 Se5.011 In1.003         3.44644147      0.09269242     -0.02689511     -0.00249297
--

   (Skipping property calculation,
    use PROP keyword to activate)
--


++ CASPT2 computation for group   2

********************************************************************************
 Multi-State initialization phase begins for group   2
--------------------------------------------------------------------------------
********************************************************************************
 Compute H0 matrices for state    2
--------------------------------------------------------------------------------
--------------------------------------------------------------------------------
 H0 matrices have been computed.

********************************************************************************
  CASPT2 EQUATION SOLUTION
--------------------------------------------------------------------------------

  Total nr of CASPT2 parameters:
   Before reduction:      138010
   After  reduction:      114262

 The contributions to the second order correlation energy in atomic units.
-----------------------------------------------------------------------------------------------------------------------------
  IT.      VJTU        VJTI        ATVX        AIVX        VJAI        BVAT        BJAT        BJAI        TOTAL       RNORM  
-----------------------------------------------------------------------------------------------------------------------------
   1     0.000000   -0.004743   -0.011651   -0.077926   -0.017393   -0.021092   -0.074556   -0.067811   -0.275172    0.013188
   2     0.000000   -0.004790   -0.011967   -0.078233   -0.017447   -0.021082   -0.074485   -0.067816   -0.275820    0.004967
   3     0.000000   -0.004798   -0.012093   -0.078418   -0.017457   -0.021048   -0.074474   -0.067828   -0.276116    0.005237
   4     0.000000   -0.004783   -0.011934   -0.078268   -0.017439   -0.021059   -0.074491   -0.067822   -0.275798    0.000820
   5     0.000000   -0.004784   -0.011945   -0.078288   -0.017440   -0.021061   -0.074498   -0.067825   -0.275840    0.000234
[...]
  of open shells. (u,d: Spin up or down).
  SGUGA info is (Midvert:IsyUp:UpperWalk/LowerWalk)
        Conf  SGUGA info        Occupation        Coefficient         Weight
           1  ( 1:1:   1/   1)   2 2 0000 0000      -0.077400       0.005991
           2  ( 1:1:   1/   2)   2 0 2000 0000       0.124485       0.015497
           3  ( 1:1:   1/   3)   0 2 2000 0000      -0.373799       0.139725
          34  ( 2:7:   1/   1)   u d u000 d000       0.479386       0.229811
          38  ( 2:7:   1/   2)   u u d000 d000       0.669920       0.448792
          59  ( 3:1:   2/   1)   2 0 0000 2000      -0.373799       0.139725
          70  ( 3:1:   2/   2)   0 2 0000 2000       0.124485       0.015496

  The CI coefficients for the MIXED state nr.   3
--------------------------------------------------------------------------------
 CI COEFFICIENTS LARGER THAN  0.50D-01
  Occupation of active orbitals, and spin coupling
  of open shells. (u,d: Spin up or down).
  SGUGA info is (Midvert:IsyUp:UpperWalk/LowerWalk)
        Conf  SGUGA info        Occupation        Coefficient         Weight
           2  ( 1:1:   1/   2)   2 0 2000 0000       0.347684       0.120884
           3  ( 1:1:   1/   3)   0 2 2000 0000      -0.349243       0.121971
          34  ( 2:7:   1/   1)   u d u000 d000      -0.713663       0.509314
          59  ( 3:1:   2/   1)   2 0 0000 2000      -0.349243       0.121971
          70  ( 3:1:   2/   2)   0 2 0000 2000       0.347684       0.120884

  The CI coefficients for the MIXED state nr.   4
--------------------------------------------------------------------------------
 CI COEFFICIENTS LARGER THAN  0.50D-01
  Occupation of active orbitals, and spin coupling
  of open shells. (u,d: Spin up or down).
  SGUGA info is (Midvert:IsyUp:UpperWalk/LowerWalk)
        Conf  SGUGA info        Occupation        Coefficient         Weight
           2  ( 1:1:   1/   2)   2 0 2000 0000       0.680817       0.463512
           3  ( 1:1:   1/   3)   0 2 2000 0000      -0.150044       0.022513
          20  ( 2:6:   1/   1)   2 0 u00d 0000       0.051299       0.002632
          21  ( 2:6:   1/   2)   0 2 u00d 0000      -0.053084       0.002818
          41  ( 2:7:   4/   2)   u u d000 000d      -0.052844       0.002792
          59  ( 3:1:   2/   1)   2 0 0000 2000       0.150044       0.022513
          65  ( 3:1:   8/   1)   2 0 0000 u00d       0.053084       0.002818
          70  ( 3:1:   2/   2)   0 2 0000 2000      -0.680817       0.463512
          76  ( 3:1:   8/   2)   0 2 0000 u00d      -0.051300       0.002632
         168  ( 4:4:   1/   1)   u u 000d d000       0.052844       0.002792

  The CI coefficients for the MIXED state nr.   5
--------------------------------------------------------------------------------
 CI COEFFICIENTS LARGER THAN  0.50D-01
  Occupation of active orbitals, and spin coupling
  of open shells. (u,d: Spin up or down).
  SGUGA info is (Midvert:IsyUp:UpperWalk/LowerWalk)
        Conf  SGUGA info        Occupation        Coefficient         Weight
           2  ( 1:1:   1/   2)   2 0 2000 0000      -0.173840       0.030220
           3  ( 1:1:   1/   3)   0 2 2000 0000      -0.630050       0.396963
           5  ( 1:1:   1/   5)   0 2 ud00 0000      -0.097989       0.009602
          21  ( 2:6:   1/   2)   0 2 u00d 0000      -0.159856       0.025554
          39  ( 2:7:   2/   2)   u u d000 0d00      -0.084249       0.007098
          41  ( 2:7:   4/   2)   u u d000 000d      -0.150881       0.022765
          46  ( 2:7:   1/   4)   u u 0d00 d000       0.084249       0.007098
          59  ( 3:1:   2/   1)   2 0 0000 2000       0.630050       0.396963
          60  ( 3:1:   3/   1)   2 0 0000 ud00       0.097989       0.009602
          65  ( 3:1:   8/   1)   2 0 0000 u00d       0.159856       0.025554
          68  ( 3:1:  11/   1)   2 0 0000 0002      -0.051929       0.002697
          69  ( 3:1:   1/   2)   0 2 0002 0000       0.051929       0.002697
          70  ( 3:1:   2/   2)   0 2 0000 2000       0.173839       0.030220
         168  ( 4:4:   1/   1)   u u 000d d000       0.150881       0.022765

  The CI coefficients for the MIXED state nr.   6
--------------------------------------------------------------------------------
 CI COEFFICIENTS LARGER THAN  0.50D-01
  Occupation of active orbitals, and spin coupling
  of open shells. (u,d: Spin up or down).
  SGUGA info is (Midvert:IsyUp:UpperWalk/LowerWalk)
        Conf  SGUGA info        Occupation        Coefficient         Weight
           2  ( 1:1:   1/   2)   2 0 2000 0000       0.596142       0.355385
           3  ( 1:1:   1/   3)   0 2 2000 0000       0.289785       0.083976
          34  ( 2:7:   1/   1)   u d u000 d000       0.297403       0.088448
          38  ( 2:7:   1/   2)   u u d000 d000      -0.100870       0.010175
          59  ( 3:1:   2/   1)   2 0 0000 2000       0.289786       0.083976
          70  ( 3:1:   2/   2)   0 2 0000 2000       0.596142       0.355385

  The CI coefficients for the MIXED state nr.   7
--------------------------------------------------------------------------------
 CI COEFFICIENTS LARGER THAN  0.50D-01
  Occupation of active orbitals, and spin coupling
  of open shells. (u,d: Spin up or down).
  SGUGA info is (Midvert:IsyUp:UpperWalk/LowerWalk)
        Conf  SGUGA info        Occupation        Coefficient         Weight
           4  ( 1:1:   1/   4)   2 0 ud00 0000       0.129118       0.016671
           5  ( 1:1:   1/   5)   0 2 ud00 0000      -0.381125       0.145256
          23  ( 2:6:   1/   4)   0 2 0u0d 0000       0.054124       0.002929
          35  ( 2:7:   2/   1)   u d u000 0d00       0.348900       0.121731
          39  ( 2:7:   2/   2)   u u d000 0d00       0.451882       0.204197
          42  ( 2:7:   1/   3)   u d 0u00 d000       0.348899       0.121731
          46  ( 2:7:   1/   4)   u u 0d00 d000       0.451880       0.204196
          49  ( 2:7:   4/   4)   u u 0d00 000d      -0.058217       0.003389
          60  ( 3:1:   3/   1)   2 0 0000 ud00      -0.381126       0.145257
          66  ( 3:1:   9/   1)   2 0 0000 0u0d       0.054124       0.002929
          71  ( 3:1:   3/   2)   0 2 0000 ud00       0.129118       0.016672
         169  ( 4:4:   2/   1)   u u 000d 0d00      -0.058217       0.003389

  The CI coefficients for the MIXED state nr.   8
--------------------------------------------------------------------------------
 CI COEFFICIENTS LARGER THAN  0.50D-01
  Occupation of active orbitals, and spin coupling
  of open shells. (u,d: Spin up or down).
  SGUGA info is (Midvert:IsyUp:UpperWalk/LowerWalk)
        Conf  SGUGA info        Occupation        Coefficient         Weight
           3  ( 1:1:   1/   3)   0 2 2000 0000       0.100908       0.010182
           4  ( 1:1:   1/   4)   2 0 ud00 0000       0.114748       0.013167
           5  ( 1:1:   1/   5)   0 2 ud00 0000      -0.336295       0.113094
          21  ( 2:6:   1/   2)   0 2 u00d 0000       0.053851       0.002900
          35  ( 2:7:   2/   1)   u d u000 0d00      -0.391435       0.153222
          39  ( 2:7:   2/   2)   u u d000 0d00      -0.441503       0.194925
          42  ( 2:7:   1/   3)   u d 0u00 d000       0.391436       0.153222
          45  ( 2:7:   4/   3)   u d 0u00 000d      -0.053657       0.002879
          46  ( 2:7:   1/   4)   u u 0d00 d000       0.441504       0.194926
          49  ( 2:7:   4/   4)   u u 0d00 000d      -0.059182       0.003502
          59  ( 3:1:   2/   1)   2 0 0000 2000      -0.100908       0.010182
          60  ( 3:1:   3/   1)   2 0 0000 ud00       0.336293       0.113093
          65  ( 3:1:   8/   1)   2 0 0000 u00d      -0.053851       0.002900
          71  ( 3:1:   3/   2)   0 2 0000 ud00      -0.114748       0.013167
         147  ( 3:4:   2/   1)   u d 000u 0d00       0.053656       0.002879
         169  ( 4:4:   2/   1)   u u 000d 0d00       0.059181       0.003502

  The CI coefficients for the MIXED state nr.   9
--------------------------------------------------------------------------------
 CI COEFFICIENTS LARGER THAN  0.50D-01
  Occupation of active orbitals, and spin coupling
  of open shells. (u,d: Spin up or down).
  SGUGA info is (Midvert:IsyUp:UpperWalk/LowerWalk)
        Conf  SGUGA info        Occupation        Coefficient         Weight
           4  ( 1:1:   1/   4)   2 0 ud00 0000       0.351369       0.123460
           5  ( 1:1:   1/   5)   0 2 ud00 0000      -0.343244       0.117816
          35  ( 2:7:   2/   1)   u d u000 0d00      -0.498077       0.248080
          42  ( 2:7:   1/   3)   u d 0u00 d000      -0.498081       0.248085
          45  ( 2:7:   4/   3)   u d 0u00 000d       0.063630       0.004049
          60  ( 3:1:   3/   1)   2 0 0000 ud00      -0.343241       0.117814
          71  ( 3:1:   3/   2)   0 2 0000 ud00       0.351366       0.123458
         147  ( 3:4:   2/   1)   u d 000u 0d00       0.063630       0.004049

  The CI coefficients for the MIXED state nr.  10
--------------------------------------------------------------------------------
 CI COEFFICIENTS LARGER THAN  0.50D-01
  Occupation of active orbitals, and spin coupling
  of open shells. (u,d: Spin up or down).
  SGUGA info is (Midvert:IsyUp:UpperWalk/LowerWalk)
        Conf  SGUGA info        Occupation        Coefficient         Weight
           4  ( 1:1:   1/   4)   2 0 ud00 0000      -0.350343       0.122740
           5  ( 1:1:   1/   5)   0 2 ud00 0000       0.371739       0.138190
          35  ( 2:7:   2/   1)   u d u000 0d00      -0.472169       0.222943
          42  ( 2:7:   1/   3)   u d 0u00 d000       0.472165       0.222939
          45  ( 2:7:   4/   3)   u d 0u00 000d      -0.059869       0.003584
          60  ( 3:1:   3/   1)   2 0 0000 ud00      -0.371742       0.138192
          71  ( 3:1:   3/   2)   0 2 0000 ud00       0.350346       0.122742
         147  ( 3:4:   2/   1)   u d 000u 0d00       0.059870       0.003584

--

--- Stop Module: caspt2 at Thu Jul 16 11:38:56 2020 /rc=_RC_ALL_IS_WELL_ ---
*** files: xmldump
    saved to directory /home/gayverjr/OpenCAP/n2_molcas/full_N2_example/symmetry/gs
--- Module caspt2 spent 15 seconds ---

--- Start Module: rassi at Thu Jul 16 11:38:56 2020 ---

()()()()()()()()()()()()()()()()()()()()()()()()()()()()()()()()()()()()()()()()()()()()()()()()()()

                                               &RASSI

                                   only a single process is used
                       available to each process: 20 GB of memory, 16 threads
                                             pid: 3102
()()()()()()()()()()()()()()()()()()()()()()()()()()()()()()()()()()()()()()()()()()()()()()()()()()


      ********************************************************************************
      *                                                                              *
      *                             General data section                             *
      *                                                                              *
      ********************************************************************************

   Specific data for JOBIPH file JOBIPH                                                                                                                          
   -------------------------------------

   Header from SEWARD:
                                                                               
        Integrals generated by seward 4.2.0  , Thu Jul 16 11:38:27 2020        

   CASSCF title (first line only):
       (No title given)                                                        

   STATE IRREP:                            1
   SPIN MULTIPLICITY:                      1
   ACTIVE ELECTRONS:                       4
   MAX RAS1 HOLES:                         0
   MAX RAS3 ELECTRONS:                     0
   NR OF CONFIG:                         249

  Info: creating TDMFILE
        estimated file size                  2258 kB
        TDMs in AO format


   The following data are common to all the states:
   ------------------------------------------------
   (note: frozen counts as inactive, deleted as secondary)

      Nr of irreps: 8

                 Total     No./Irrep 
      Irrep                  1   2   3   4   5   6   7   8
                            ag b3u b2u b1g b1u b2g b3g  au

      INACTIVE       5       3   0   0   0   2   0   0   0
      ACTIVE        10       0   1   1   0   0   4   4   0
      SECONDARY    104      25  13  13   8  20  10  10   5
      BASIS        119      28  14  14   8  22  14  14   5

      RAS1           0       0   0   0   0   0   0   0   0
      RAS2          10       0   1   1   0   0   4   4   0
      RAS3           0       0   0   0   0   0   0   0   0

        MATRIX ELEMENTS WILL BE COMPUTED FOR THE FOLLOWING ONE-ELECTRON OPERATORS, UNLESS ZERO BY SYMMETRY.
   (Herm=Hermitian, Anti=Antihermitian, Sing=Singlet operator, Trip=Triplet operator)
     MLTPL  0   1 (HERMSING)     MLTPL  1   1 (HERMSING)     MLTPL  1   2 (HERMSING)
     MLTPL  1   3 (HERMSING)     MLTPL  2   1 (HERMSING)     MLTPL  2   2 (HERMSING)
     MLTPL  2   3 (HERMSING)     MLTPL  2   4 (HERMSING)     MLTPL  2   5 (HERMSING)
     MLTPL  2   6 (HERMSING)     VELOCITY   1 (ANTISING)     VELOCITY   2 (ANTISING)
     VELOCITY   3 (ANTISING)     ANGMOM     1 (ANTISING)     ANGMOM     2 (ANTISING)
     ANGMOM     3 (ANTISING)     MLTPV  2   1 (ANTISING)     MLTPV  2   2 (ANTISING)
     MLTPV  2   3 (ANTISING)     MLTPV  2   4 (ANTISING)     MLTPV  2   5 (ANTISING)
     MLTPV  2   6 (ANTISING)

       EIGENSTATES OF A SPIN-FREE HAMILTONIAN WILL BE COMPUTED BASED ON:

  a (effective) Hamiltonian matrix that was read from the wavefunction file(s).
  SO coupling elements will be added.
       EIGENSTATES OF SPIN-ORBIT HAMILTONIAN WILL BE COMPUTED
        MATRIX ELEMENTS OVER SPIN EIGENSTATES FOR:
     MLTPL  0   1 (HERMSING)     MLTPL  1   1 (HERMSING)     MLTPL  1   2 (HERMSING)
     MLTPL  1   3 (HERMSING)     MLTPL  2   1 (HERMSING)     MLTPL  2   2 (HERMSING)
     MLTPL  2   3 (HERMSING)     MLTPL  2   4 (HERMSING)     MLTPL  2   5 (HERMSING)
     MLTPL  2   6 (HERMSING)     VELOCITY   1 (ANTISING)     VELOCITY   2 (ANTISING)
     VELOCITY   3 (ANTISING)     ANGMOM     1 (ANTISING)     ANGMOM     2 (ANTISING)
     ANGMOM     3 (ANTISING)     MLTPV  2   1 (ANTISING)     MLTPV  2   2 (ANTISING)
     MLTPV  2   3 (ANTISING)     MLTPV  2   4 (ANTISING)     MLTPV  2   5 (ANTISING)
     MLTPV  2   6 (ANTISING)

  Nr of states:                   10

   State:        1   2   3   4   5   6   7   8   9  10
  JobIph:        1   1   1   1   1   1   1   1   1   1
 Root nr:        1   2   3   4   5   6   7   8   9  10

  HAMILTONIAN MATRIX FOR THE ORIGINAL STATES:

  Diagonal, with energies
   -109.35305897   -108.71262463   -108.64575835   -108.57372848   -108.54592155
   -108.53682782   -108.45176629   -108.46038834   -108.41120154   -108.41418280

      OVERLAP MATRIX FOR THE ORIGINAL STATES:

  Diagonal, with elements
      1.00000000      1.00000000      1.00000000      1.00000000      1.00000000
      1.00000000      1.00000000      1.00000000      1.00000000      1.00000000

::    RASSI State    1     Total energy:   -109.35305897
::    RASSI State    2     Total energy:   -108.71262463
::    RASSI State    3     Total energy:   -108.64575835
::    RASSI State    4     Total energy:   -108.57372848
::    RASSI State    5     Total energy:   -108.54592155
::    RASSI State    6     Total energy:   -108.53682782
::    RASSI State    7     Total energy:   -108.45176629
::    RASSI State    8     Total energy:   -108.46038834
::    RASSI State    9     Total energy:   -108.41120154
::    RASSI State   10     Total energy:   -108.41418280



      ****************************************************************************************************
      *                                                                                                  *
      *                                         Spin-free section                                        *
      *                                                                                                  *
      *                 Note: index according to input order, order according to energy.                 *
      *                                                                                                  *
      ****************************************************************************************************



  SPIN-FREE ENERGIES:
  (Shifted by EMIN (a.u.) =       -109.3530589730)

 SF State       Relative EMIN(au)   Rel lowest level(eV)    D:o, cm**(-1)

     1             0.0000000000        0.0000000000              0.0000
     2             0.6404343386       17.4271061537         140559.0904
     3             0.7073006212       19.2466303943         155234.5431
     4             0.7793304963       21.2066631493         171043.2734
     5             0.8071374202       21.9633280951         177146.1878
     6             0.8162311528       22.2107811644         179142.0314
     8             0.8926706311       24.2908053333         195918.5577
     7             0.9012926841       24.5254233476         197810.8796
    10             0.9388761738       25.5481222033         206059.5021
     9             0.9418574359       25.6292464768         206713.8135
 Electric-dipole - electric-octupole not included
 Electric-dipole - magnetic-quadrupole not included


      ****************************************************************************************************
      *                                                                                                  *
      *                                    Special properties section                                    *
      *                                                                                                  *
      ****************************************************************************************************


++ I/O STATISTICS
 
  I. General I/O information
  - - - - - - - - - - - - - - - - - - - - - - - - - - - - - - - - - - - - - - - - - - -
  Unit  Name          Flsize      Write/Read            MBytes           Write/Read
                      (MBytes)       Calls              In/Out           Time, sec.
  - - - - - - - - - - - - - - - - - - - - - - - - - - - - - - - - - - - - - - - - - - -
   1  SCRATCH           0.04 .      10/      55 .      0.0/      0.2 .       0/       0
   2  ANNI              0.00 .       0/       0 .      0.0/      0.0 .       0/       0
   3  RUNFILE          13.41 .     182/    1188 .      1.3/      8.7 .       0/       0
   4  ONEINT            1.58 .       0/    2421 .      0.0/   2214.6 .       0/       0
   5  JOBIPH            1.76 .       0/      98 .      0.0/      1.3 .       0/       0
   6  TDMFILE           1.83 .     110/     110 .      1.8/      1.8 .       0/       0
  - - - - - - - - - - - - - - - - - - - - - - - - - - - - - - - - - - - - - - - - - - -
   *  TOTAL            18.62 .     302/    3872 .      3.1/   2226.5 .       0/       0
  - - - - - - - - - - - - - - - - - - - - - - - - - - - - - - - - - - - - - - - - - - -
 
  II. I/O Access Patterns
  - - - - - - - - - - - - - - - - - - - -
  Unit  Name               % of random
                         Write/Read calls
  - - - - - - - - - - - - - - - - - - - -
   1  SCRATCH             90.0/ 100.0
   2  ANNI                 0.0/   0.0
   3  RUNFILE             28.6/  10.9
   4  ONEINT               0.0/  81.5
   5  JOBIPH               0.0/  75.5
   6  TDMFILE             99.1/ 100.0
  - - - - - - - - - - - - - - - - - - - -
--
--- Stop Module: rassi at Thu Jul 16 11:38:57 2020 /rc=_RC_ALL_IS_WELL_ ---
*** files: gs_ms.rassi.h5 xmldump
    saved to directory /home/gayverjr/OpenCAP/n2_molcas/full_N2_example/symmetry/gs

.##################.
.# Happy landing! #.
.##################.

    Timing: Wall=32.61 User=142.12 System=9.81
