******************************************************
*** WorkDir and CurrDir are the same, not cleaned! ***
******************************************************
   This run of MOLCAS is using the pymolcas driver

                             OPE
                             OPE          NMOL  CASOP  ENMOLC A   SO
                 OPE        NMOLC        AS  OP EN  MO LC     AS  OP
                OPENM       OL CA        SO  PE NM  OL CA     SOP EN
                OP EN      MO   LC       AS  OP ENMOL  CASO   PENMOL
                OP  EN     MO   LC       AS  OP EN     MO     LC ASO
               OP   E  NMOL  C  AS       OP  EN MO     LC     AS  OP
               OP  E   NMO   LC AS        OPEN  MO     LCASOP EN   M
               O  PEN   MO  LCA  SO
            OPE   NMO   L   CAS    OP
        OPENMOL  CASOP     ENMOL   CASOPE
     OPENMOLCA   SOPENMOLCASOPEN   MOLCASOPE
    OPENMOLCAS   OP           EN   MOL    CAS
    OPENMOLCAS       OP  ENM        O     LCA
    OPENMOLCAS    OPEN  MOLCASO     P  E  NMO
    OPENMOLCAS     OP               E  N  MOL
    OPENMOLCA   SO           PENM   O  L  CAS    OPEN    MO    LCAS
    OPENMOLCA   SOP           ENM   O  L  CAS   OP  EN  MOLC  AS   O
    OPENMOLCA   SOPE           NM      O  LCA   S      OP  EN MO
    OPENMOLC                AS         O  PEN   M      OL  CA  SOPE
    OPENMO        LCASOPE  NMOL        C  ASO   P      ENMOLC     AS
    OPE     NMO      LCA  SO     P     E   NM   OL  CA SO  PE N   MO
          OPENMOLCA            SOPE   NMO        LCAS  O    P  ENMO
     OPENMOLCASOPENMOLCASOPENMOLCASOPENMOLCA
        OPENMOLCASOPENMOLCASOPENMOLCASOPE
            OPENMOLCASOPENMOLCASOPENM
               OPENMOLCASOPENMOLCA        version: 19.11
                   OPENMOLCASO
                       OPE                tag: 1162-ga18ab34

 OpenMolcas is free software; you can redistribute it and/or modify it
 under the terms of the GNU Lesser General Public License version 2.1.
 OpenMolcas is distributed in the hope that it will be useful, but it
 is provided "as is" and without any express or implied warranties.
 For more details see the full text of the license in the file
 LICENSE or in <http://www.gnu.org/licenses/>.

                 Copyright (C) The OpenMolcas Authors
           For the author list and the recommended citation,
                   consult the file CONTRIBUTORS.md

           *************************************************
           * pymolcas version py2.08                       *
           *   build bed633bbe89b7744c23cdbfc3f64969c      *
           *   (after the EMIL interpreter by V. Veryazov) *
           *************************************************

configuration info
------------------
C Compiler ID: GNU
C flags: -std=gnu99 -fopenmp
Fortran Compiler ID: GNU
Fortran flags: -fno-aggressive-loop-optimizations -cpp -fdefault-integer-8 -fopenmp
Definitions: _MOLCAS_;_I8_;_LINUX_;_MKL_;_DMRG_
Parallel: OFF (GA=OFF)


   ----------------------------------------------------------------------
  |
  |             Project: nosymm
  |      Submitted from: /scratch/gayverjr/nosymm.1471811268
  |        Scratch area: /scratch/gayverjr/nosymm.1471811268
  |     Save outputs to: /home/gayverjr/OpenCAP/molcas_example
  |              Molcas: /home/qcsoftware/OpenMolcas/qcmaquis_build/build
  |
  | Scratch area is NOT empty
  |
  |      MOLCAS_DRIVER = /home/qcsoftware/bin/pymolcas
  | MOLCAS_NEW_WORKDIR = YES
  |      MOLCAS_NPROCS = 16
  |      MOLCAS_SOURCE = /home/qcsoftware/OpenMolcas/Molcas_src
  |   MOLCAS_STRUCTURE = 0
  |
   ----------------------------------------------------------------------

++ ---------   Input file   ---------

&GATEWAY
Expert
Basis set
 N.aug-cc-pvtz
 N1  0.0  0.0  1.039
 N2  0.0  0.0  -1.039
End of Basis
Basis set
X ..... / inline
   0.00   2
    3    3
               0.0288
               0.0144
               0.0072
      1.00000000             0.00000000             0.00000000
      0.00000000             1.00000000             0.00000000
      0.00000000             0.00000000             1.00000000
     3    3
               0.02455
               0.012275
               0.0061375
     1.00000000             0.00000000             0.00000000
     0.00000000             1.00000000             0.00000000
     0.00000000             0.00000000             1.00000000
     3    3
               0.0755
               0.03775
               0.018875
      1.000000E+00           0.000000E+00           0.000000E+00           0.00000000
      0.000000E+00           1.000000E+00           0.000000E+00           0.00000000
      0.000000E+00           0.000000E+00           1.000000E+00           0.00000000
X1  0.000  0.000  0.000
End of basis

&SEWARD

&SCF

&MBPT2
PRPT

>>> COPY /home/gayverjr/OpenCAP/molcas_example/$Project.MP2Orb INPORB

&RASSCF
LUMORB
Title = cas 5,13 test
Charge = 0
Ras2=4
NActEl=4,0,0
CIROOT= 10 10 1

>>> COPY /home/gayverjr/OpenCAP/molcas_example/$Project.RasOrb INPORB

&RASSCF
LUMORB
Charge = -1
SPIN = 2
Ras2=10
NActEl=5,0,0
CIROOT= 10 10 1
Alter = 6
1 10 18
1 11 19
1 12 28
1 13 29
1 14 37
1 15 38

&CASPT2
MAXIter = 50
XMULtistate = all

&RASSI
TRD1

>>> COPY /home/gayverjr/OpenCAP/molcas_example/$Project.RasOrb INPORB

&RASSCF
LUMORB
Inactive = 5
Spin = 1
Charge = 0
Ras2=10
CIONLY
NActEl=4,0,0
CIROOT= 10 10 1
Alter = 6
1 10 18
1 11 19
1 12 28
1 13 29
1 14 37
1 15 38

&CASPT2
MAXIter = 50
XMULtistate = all

-- ----------------------------------

--- Start Module: gateway at Mon Aug 10 20:29:11 2020 ---

()()()()()()()()()()()()()()()()()()()()()()()()()()()()()()()()()()()()()()()()()()()()()()()()()()

                                              &GATEWAY

                                   only a single process is used
                       available to each process: 20 GB of memory, 16 threads
                                             pid: 28668
()()()()()()()()()()()()()()()()()()()()()()()()()()()()()()()()()()()()()()()()()()()()()()()()()()

 ###############################################################################
 ###############################################################################
 ###                                                                         ###
 ###                                                                         ###
 ###    WARNING:  EXPERT option is ON!                                       ###
 ###                                                                         ###
 ###                                                                         ###
 ###############################################################################
 ###############################################################################

++    Symmetry information:
      ---------------------

                    Character Table for C1 

                             E  
                    a        1  x, y, xy, Rz, z, xz, Ry, yz, Rx, I
--


++    Basis set information:
      ----------------------


      Basis set label: N.AUG-CC-PVTZ.........

      Electronic valence basis set:
      ------------------
      Associated Effective Charge   7.000000 au
      Associated Actual Charge      7.000000 au
      Nuclear Model: Point charge

      Shell  nPrim  nBasis  Cartesian Spherical Contaminant
         s      11       5        X                  
         p       6       4        X                  
         d       3       3                 X         
         f       2       2                 X         


      Basis set label: X...............................................................................

      Electronic valence basis set:
      ------------------
      Associated Effective Charge   0.000000 au
      Associated Actual Charge      0.000000 au
      Nuclear Model: Point charge

      Shell  nPrim  nBasis  Cartesian Spherical Contaminant
         s       3       3        X                  
         p       3       3        X                  
         d       3       3                 X         
--


++    Molecular structure info:
      -------------------------

                    ************************************************ 
                    **** Cartesian Coordinates / Bohr, Angstrom **** 
                    ************************************************ 

     Center  Label                x              y              z                     x              y              z
        1      N1               0.000000       0.000000       1.039000              0.000000       0.000000       0.549815
        2      N2               0.000000       0.000000      -1.039000              0.000000       0.000000      -0.549815
        3      X1               0.000000       0.000000       0.000000              0.000000       0.000000       0.000000

                    *************************************** 
                    *    InterNuclear Distances / Bohr    * 
                    *************************************** 

               1 N1            2 N2            3 X1    
    1 N1       0.000000
    2 N2       2.078000        0.000000
    3 X1       1.039000        1.039000        0.000000

                    ******************************************* 
                    *    InterNuclear Distances / Angstrom    * 
                    ******************************************* 

               1 N1            2 N2            3 X1    
    1 N1       0.000000
    2 N2       1.099630        0.000000
    3 X1       0.549815        0.549815        0.000000

                    ************************************** 
                    *    Valence Bond Angles / Degree    * 
                    ************************************** 
                          Atom centers                 Phi
                      2 N2       1 N1       3 X1         0.00
                      1 N1       2 N2       3 X1         0.00
                      1 N1       3 X1       2 N2       180.00
--


            Nuclear Potential Energy             23.58036574 au

--- Stop Module: gateway at Mon Aug 10 20:29:13 2020 /rc=_RC_ALL_IS_WELL_ ---
*** files: xmldump
    saved to directory /home/gayverjr/OpenCAP/molcas_example
--- Module gateway spent 1 second ---

--- Start Module: seward at Mon Aug 10 20:29:13 2020 ---

()()()()()()()()()()()()()()()()()()()()()()()()()()()()()()()()()()()()()()()()()()()()()()()()()()

                                              &SEWARD

                                   only a single process is used
                       available to each process: 20 GB of memory, 16 threads
                                             pid: 28689
()()()()()()()()()()()()()()()()()()()()()()()()()()()()()()()()()()()()()()()()()()()()()()()()()()

               SEWARD will generate:
                  Multipole Moment integrals up to order  2
                  Kinetic Energy integrals
                  Nuclear Attraction integrals (point charge)
                  One-Electron Hamiltonian integrals
                  Velocity integrals
                  Orbital angular momentum around ( 0.0000  0.0000  0.0000 )
                  Velocity quadrupole around ( 0.0000  0.0000  0.0000 )
                  Two-Electron Repulsion integrals

                   Integrals are discarded if absolute value <: 0.10E-13
                   Integral cutoff threshold is set to       <: 0.10E-15

            Nuclear Potential Energy             23.58036574 au


      Basis set specifications :
      Symmetry species         a  
      Basis functions          119


  Input file to MOLDEN was generated!

--- Stop Module: seward at Mon Aug 10 20:29:17 2020 /rc=_RC_ALL_IS_WELL_ ---
*** files: nosymm.GssOrb nosymm.guessorb.h5 nosymm.guessorb.molden xmldump
    saved to directory /home/gayverjr/OpenCAP/molcas_example
--- Module seward spent 4 seconds ---

*** symbolic link created: INPORB -> nosymm.GssOrb
--- Start Module: scf at Mon Aug 10 20:29:17 2020 ---

()()()()()()()()()()()()()()()()()()()()()()()()()()()()()()()()()()()()()()()()()()()()()()()()()()

                                                &SCF

                                   only a single process is used
                       available to each process: 20 GB of memory, 16 threads
                                             pid: 28770
()()()()()()()()()()()()()()()()()()()()()()()()()()()()()()()()()()()()()()()()()()()()()()()()()()

++    Input section:
      --------------

      Header of the integral files:
      
       Integrals generated by seward 4.2.0  , Mon Aug 10 20:29:13 2020


      Cartesian coordinates in Angstrom:
      -----------------------------------------------------
      No.  Label        X            Y            Z        
      -----------------------------------------------------
       1   N1         0.00000000   0.00000000   0.54981512
       2   N2         0.00000000   0.00000000  -0.54981512
       3   X1         0.00000000   0.00000000   0.00000000
      -----------------------------------------------------
      Nuclear repulsion energy =   23.58036574
--

++    Orbital specifications:
      -----------------------

      Symmetry species               1
                                     a
      Frozen orbitals                0
      Occupied orbitals              7
      Secondary orbitals           112
      Deleted orbitals               0
      Total number of orbitals     119
      Number of basis functions    119
--

      Molecular charge                           0.000

++    Optimization specifications:
      ----------------------------

      SCF Algorithm: Conventional
      Minimized density differences are used
      Number of density matrices in core                5
      Maximum number of NDDO SCF iterations           400
      Maximum number of HF SCF iterations             400
      Threshold for SCF energy change            0.10E-08
      Threshold for density matrix               0.10E-03
      Threshold for Fock matrix                  0.15E-03
      Threshold for linear dependence            0.10E-08
      Threshold at which DIIS is turned on       0.15E+00
      Threshold at which QNR/C2DIIS is turned on 0.75E-01
      Threshold for Norm(delta) (QNR/C2DIIS)     0.20E-04
      DIIS extrapolation of the SCF procedure
      All orbitals punched on: SCFORB
--

      Input vectors read from INPORB
      Orbital file label: *Guess orbitals


++ Convergence information
                                   SCF        iterations: Energy and convergence statistics

Iter     Tot. SCF        One-elec.       Two-elec.     Energy      Max Dij or  Max Fij      DNorm      TNorm      AccCon     Time
         Energy          Energy          Energy        Change      Delta Norm                                                in Sec.
   1  -108.707230664  -191.849085778    59.561489378   0.00E+00    0.16E+00*   0.18E+00*    0.53E+01   0.88E+02   None         2.
   2  -108.969308746  -194.970433876    62.420759393  -0.26E+00*   0.51E-01*   0.48E-01*    0.31E+01   0.89E+02   EDIIS        2.
   3  -108.983355927  -193.973137613    61.409415949  -0.14E-01*   0.12E-01*   0.12E-01*    0.78E+00   0.89E+02   EDIIS        2.
   4  -108.984356063  -194.229605454    61.664883654  -0.10E-02*   0.46E-02*   0.27E-02*    0.12E+00   0.89E+02   c2DIIS       2.
   5  -108.984436673  -194.165371510    61.600569101  -0.81E-04*   0.13E-02*   0.70E-03*    0.14E-01   0.89E+02   QNRc2DIIS    2.
   6  -108.984442288  -194.169070639    61.604262614  -0.56E-05*   0.67E-03*   0.23E-03*    0.19E-02   0.89E+02   QNRc2DIIS    2.
   7  -108.984442929  -194.166733167    61.601924502  -0.64E-06*   0.45E-04*   0.31E-04     0.18E-03   0.89E+02   QNRc2DIIS    2.
   8  -108.984442936  -194.167341042    61.602532370  -0.69E-08*   0.57E-05    0.30E-05     0.20E-04   0.89E+02   QNRc2DIIS    2.
   9  -108.984442936  -194.167342743    61.602534071  -0.81E-10    0.33E-06    0.12E-06     0.78E-04   0.89E+02   QNRc2DIIS    2.

       Convergence after  9 Macro Iterations
--

 *****************************************************************************************************************************
 *                                                                                                                           *
 *                                             SCF/KS-DFT Program, Final results                                             *
 *                                                                                                                           *
 *                                                                                                                           *
 *                                                                                                                           *
 *                                                       Final Results                                                       *
 *                                                                                                                           *
 *****************************************************************************************************************************

::    Total SCF energy                               -108.9844429358
      One-electron energy                            -194.1673427433
      Two-electron energy                              61.6025340712
      Nuclear repulsion energy                         23.5803657363
      Kinetic energy (interpolated)                   108.7233112709
      Virial theorem                                    1.0024018001
      Total spin, S(S+1)                                0.0000000000
      Total spin, S                                     0.0000000000
      Max non-diagonal density matrix element           0.0000002036
      Max non-diagonal Fock matrix element              0.0000000423


      All orbitals with orbital energies smaller than  E(LUMO)+0.5 are printed

++    Molecular orbitals:
      -------------------

      Title: SCF orbitals

      Molecular orbitals for symmetry species 1: a  

          Orbital            1         2         3         4         5         6         7         8         9        10    
          Energy          -15.6860  -15.6825   -1.4709   -0.7802   -0.6343   -0.6136   -0.6136    0.0090    0.0118    0.0118
          Occ. No.          2.0000    2.0000    2.0000    2.0000    2.0000    2.0000    2.0000    0.0000    0.0000    0.0000

        1 N1     1s         0.7070   -0.7067   -0.0168   -0.0044   -0.0046    0.0000    0.0000   -0.0006   -0.0000   -0.0000
        2 N1     1s         0.0014    0.0011    0.6354   -0.6580   -0.2410   -0.0000    0.0000   -0.0230   -0.0000   -0.0000
        3 N1     1s         0.0009   -0.0005   -0.0034   -0.0002    0.0008    0.0000    0.0000    0.0001    0.0000   -0.0000
        4 N1     1s         0.0013   -0.0216   -0.1264   -0.2218   -0.1595   -0.0000    0.0000    0.0005   -0.0000   -0.0000
        5 N1     1s         0.0019   -0.0078    0.0121   -0.0535   -0.0998    0.0000    0.0000   -1.0076   -0.0000   -0.0000
        6 N1     2px        0.0000   -0.0000   -0.0000    0.0000    0.0000    0.6024    0.1754    0.0000   -0.0002   -0.0091
        7 N1     2px       -0.0000    0.0000   -0.0000   -0.0000   -0.0000   -0.0070   -0.0021    0.0000   -0.0001   -0.0034
        8 N1     2px       -0.0000   -0.0000    0.0000   -0.0000   -0.0000   -0.0353   -0.0103   -0.0000    0.0003    0.0128
        9 N1     2px       -0.0000    0.0000    0.0000   -0.0000    0.0000   -0.0023   -0.0007   -0.0000   -0.0026   -0.0996
       10 N1     2py        0.0000   -0.0000   -0.0000    0.0000    0.0000   -0.1754    0.6024    0.0000   -0.0091    0.0002
       11 N1     2py       -0.0000    0.0000   -0.0000   -0.0000   -0.0000    0.0021   -0.0070   -0.0000   -0.0034    0.0001
       12 N1     2py       -0.0000   -0.0000   -0.0000   -0.0000   -0.0000    0.0103   -0.0353    0.0000    0.0128   -0.0003
       13 N1     2py       -0.0000   -0.0000   -0.0000   -0.0000   -0.0000    0.0007   -0.0023   -0.0000   -0.0996    0.0026
       14 N1     2pz       -0.0051    0.0031   -0.3420   -0.3216   -0.6975   -0.0000    0.0000   -0.0229    0.0000    0.0000
       15 N1     2pz        0.0025   -0.0006    0.0376    0.0223    0.0470    0.0000   -0.0000    0.0020   -0.0000   -0.0000
       16 N1     2pz        0.0035    0.0086    0.1299    0.1157    0.0883    0.0000   -0.0000   -0.0070   -0.0000   -0.0000
       17 N1     2pz        0.0072    0.0018    0.0661    0.0072   -0.1252    0.0000    0.0000   -1.0226   -0.0000   -0.0000
       18 N1     3d2-      -0.0000    0.0000   -0.0000    0.0000    0.0000    0.0000    0.0000   -0.0000   -0.0000    0.0000
       19 N1     3d2-      -0.0000    0.0000   -0.0000   -0.0000    0.0000   -0.0000   -0.0000   -0.0000    0.0000   -0.0000
       20 N1     3d2-       0.0000   -0.0000   -0.0000    0.0000   -0.0000    0.0000    0.0000    0.0000   -0.0000    0.0000
       21 N1     3d1-      -0.0000    0.0000    0.0000   -0.0000   -0.0000    0.0056   -0.0192   -0.0000    0.0004   -0.0000
       22 N1     3d1-      -0.0000    0.0000   -0.0000    0.0000   -0.0000    0.0102   -0.0352    0.0000    0.0007   -0.0000
       23 N1     3d1-      -0.0000    0.0000   -0.0000    0.0000   -0.0000    0.0020   -0.0070   -0.0000    0.0021   -0.0001
       24 N1     3d0        0.0006   -0.0007    0.0202    0.0031    0.0182    0.0000   -0.0000   -0.0001   -0.0000   -0.0000
       25 N1     3d0       -0.0010   -0.0009    0.0154    0.0011    0.0150   -0.0000   -0.0000    0.0009    0.0000    0.0000
       26 N1     3d0       -0.0003   -0.0016   -0.0256   -0.0140   -0.0073   -0.0000   -0.0000   -0.0226    0.0000    0.0000
       27 N1     3d1+      -0.0000    0.0000    0.0000   -0.0000   -0.0000   -0.0192   -0.0056    0.0000    0.0000    0.0004
       28 N1     3d1+      -0.0000    0.0000    0.0000    0.0000   -0.0000   -0.0352   -0.0102   -0.0000    0.0000    0.0007
       29 N1     3d1+       0.0000    0.0000   -0.0000    0.0000   -0.0000   -0.0070   -0.0020    0.0000    0.0001    0.0021
       30 N1     3d2+       0.0000   -0.0000   -0.0000    0.0000    0.0000   -0.0000    0.0000    0.0000   -0.0000    0.0000
       31 N1     3d2+      -0.0000    0.0000    0.0000   -0.0000   -0.0000   -0.0000    0.0000   -0.0000    0.0000   -0.0000
       32 N1     3d2+       0.0000   -0.0000   -0.0000   -0.0000    0.0000   -0.0000    0.0000   -0.0000   -0.0000   -0.0000
       33 N1     4f3-       0.0000    0.0000   -0.0000    0.0000   -0.0000   -0.0000    0.0000    0.0000    0.0000   -0.0000
       34 N1     4f3-      -0.0000   -0.0000    0.0000    0.0000   -0.0000    0.0000   -0.0000   -0.0000   -0.0000    0.0000
       35 N1     4f2-       0.0000    0.0000   -0.0000   -0.0000   -0.0000    0.0000    0.0000    0.0000    0.0000    0.0000
       36 N1     4f2-       0.0000   -0.0000   -0.0000   -0.0000   -0.0000   -0.0000   -0.0000    0.0000   -0.0000    0.0000
       37 N1     4f1-       0.0000   -0.0000   -0.0000   -0.0000    0.0000   -0.0023    0.0078   -0.0000    0.0000   -0.0000
       38 N1     4f1-      -0.0000   -0.0000    0.0000   -0.0000    0.0000   -0.0003    0.0009    0.0000   -0.0005    0.0000
       39 N1     4f0        0.0002    0.0005   -0.0076    0.0011   -0.0058   -0.0000    0.0000   -0.0005   -0.0000   -0.0000
       40 N1     4f0        0.0004    0.0000    0.0050   -0.0002    0.0026    0.0000    0.0000    0.0018   -0.0000   -0.0000
       41 N1     4f1+       0.0000    0.0000   -0.0000   -0.0000    0.0000    0.0078    0.0023    0.0000    0.0000    0.0000
       42 N1     4f1+      -0.0000   -0.0000    0.0000   -0.0000    0.0000    0.0009    0.0003   -0.0000   -0.0000   -0.0005
       43 N1     4f2+      -0.0000   -0.0000   -0.0000    0.0000    0.0000    0.0000   -0.0000   -0.0000   -0.0000   -0.0000
       44 N1     4f2+      -0.0000   -0.0000    0.0000    0.0000    0.0000   -0.0000    0.0000    0.0000   -0.0000    0.0000
       45 N1     4f3+      -0.0000   -0.0000    0.0000   -0.0000    0.0000   -0.0000   -0.0000   -0.0000   -0.0000   -0.0000
       46 N1     4f3+       0.0000    0.0000   -0.0000   -0.0000    0.0000    0.0000    0.0000    0.0000    0.0000    0.0000
       47 N2     1s         0.7070    0.7067   -0.0168    0.0044   -0.0046    0.0000    0.0000   -0.0006   -0.0000   -0.0000
       48 N2     1s         0.0014   -0.0011    0.6354    0.6580   -0.2410   -0.0000    0.0000   -0.0230   -0.0000   -0.0000
       49 N2     1s         0.0009    0.0005   -0.0034    0.0002    0.0008    0.0000    0.0000    0.0001    0.0000    0.0000
       50 N2     1s         0.0013    0.0216   -0.1264    0.2218   -0.1595   -0.0000    0.0000    0.0005    0.0000    0.0000
       51 N2     1s         0.0019    0.0078    0.0121    0.0535   -0.0998    0.0000    0.0000   -1.0076    0.0000    0.0000
       52 N2     2px        0.0000   -0.0000   -0.0000    0.0000    0.0000    0.6024    0.1754   -0.0000   -0.0002   -0.0091
       53 N2     2px        0.0000    0.0000   -0.0000    0.0000   -0.0000   -0.0070   -0.0021   -0.0000   -0.0001   -0.0034
       54 N2     2px       -0.0000    0.0000    0.0000    0.0000   -0.0000   -0.0353   -0.0103    0.0000    0.0003    0.0128
       55 N2     2px        0.0000   -0.0000   -0.0000    0.0000   -0.0000   -0.0023   -0.0007    0.0000   -0.0026   -0.0996
       56 N2     2py        0.0000   -0.0000   -0.0000    0.0000    0.0000   -0.1754    0.6024   -0.0000   -0.0091    0.0002
       57 N2     2py       -0.0000    0.0000   -0.0000    0.0000   -0.0000    0.0021   -0.0070    0.0000   -0.0034    0.0001
       58 N2     2py       -0.0000    0.0000    0.0000    0.0000   -0.0000    0.0103   -0.0353   -0.0000    0.0128   -0.0003
       59 N2     2py        0.0000    0.0000    0.0000    0.0000   -0.0000    0.0007   -0.0023    0.0000   -0.0996    0.0026
       60 N2     2pz        0.0051    0.0031    0.3420   -0.3216    0.6975    0.0000   -0.0000    0.0229   -0.0000   -0.0000
       61 N2     2pz       -0.0025   -0.0006   -0.0376    0.0223   -0.0470   -0.0000    0.0000   -0.0020    0.0000    0.0000
       62 N2     2pz       -0.0035    0.0086   -0.1299    0.1157   -0.0883   -0.0000    0.0000    0.0070    0.0000    0.0000
       63 N2     2pz       -0.0072    0.0018   -0.0661    0.0072    0.1252   -0.0000   -0.0000    1.0226    0.0000    0.0000
       64 N2     3d2-      -0.0000   -0.0000   -0.0000    0.0000   -0.0000   -0.0000   -0.0000    0.0000    0.0000    0.0000
       65 N2     3d2-       0.0000    0.0000    0.0000    0.0000   -0.0000   -0.0000   -0.0000    0.0000   -0.0000    0.0000
       66 N2     3d2-       0.0000   -0.0000   -0.0000    0.0000    0.0000    0.0000   -0.0000   -0.0000   -0.0000   -0.0000
       67 N2     3d1-       0.0000   -0.0000   -0.0000    0.0000    0.0000   -0.0056    0.0192   -0.0000   -0.0004    0.0000
       68 N2     3d1-       0.0000   -0.0000   -0.0000    0.0000    0.0000   -0.0102    0.0352    0.0000   -0.0007    0.0000
       69 N2     3d1-       0.0000    0.0000    0.0000    0.0000    0.0000   -0.0020    0.0070   -0.0000   -0.0021    0.0001
       70 N2     3d0        0.0006    0.0007    0.0202   -0.0031    0.0182    0.0000   -0.0000   -0.0001   -0.0000   -0.0000
       71 N2     3d0       -0.0010    0.0009    0.0154   -0.0011    0.0150   -0.0000   -0.0000    0.0009    0.0000    0.0000
       72 N2     3d0       -0.0003    0.0016   -0.0256    0.0140   -0.0073   -0.0000   -0.0000   -0.0226    0.0000    0.0000
       73 N2     3d1+       0.0000   -0.0000   -0.0000    0.0000    0.0000    0.0192    0.0056   -0.0000   -0.0000   -0.0004
       74 N2     3d1+       0.0000   -0.0000   -0.0000    0.0000    0.0000    0.0352    0.0102   -0.0000   -0.0000   -0.0007
       75 N2     3d1+       0.0000    0.0000    0.0000    0.0000    0.0000    0.0070    0.0020    0.0000   -0.0001   -0.0021
       76 N2     3d2+       0.0000    0.0000    0.0000   -0.0000    0.0000   -0.0000    0.0000   -0.0000   -0.0000    0.0000
       77 N2     3d2+      -0.0000   -0.0000   -0.0000   -0.0000    0.0000   -0.0000    0.0000    0.0000    0.0000   -0.0000
       78 N2     3d2+       0.0000    0.0000    0.0000   -0.0000    0.0000   -0.0000    0.0000    0.0000   -0.0000    0.0000
       79 N2     4f3-       0.0000   -0.0000   -0.0000   -0.0000   -0.0000   -0.0000    0.0000   -0.0000    0.0000    0.0000
       80 N2     4f3-      -0.0000    0.0000    0.0000   -0.0000   -0.0000    0.0000   -0.0000    0.0000   -0.0000   -0.0000
       81 N2     4f2-      -0.0000   -0.0000   -0.0000    0.0000    0.0000   -0.0000   -0.0000   -0.0000   -0.0000   -0.0000
       82 N2     4f2-       0.0000   -0.0000   -0.0000    0.0000    0.0000    0.0000    0.0000    0.0000   -0.0000    0.0000
       83 N2     4f1-       0.0000   -0.0000   -0.0000    0.0000    0.0000   -0.0023    0.0078    0.0000    0.0000   -0.0000
       84 N2     4f1-      -0.0000    0.0000    0.0000    0.0000    0.0000   -0.0003    0.0009   -0.0000   -0.0005    0.0000
       85 N2     4f0       -0.0002    0.0005    0.0076    0.0011    0.0058    0.0000   -0.0000    0.0005    0.0000    0.0000
       86 N2     4f0       -0.0004    0.0000   -0.0050   -0.0002   -0.0026   -0.0000   -0.0000   -0.0018    0.0000    0.0000
       87 N2     4f1+       0.0000   -0.0000   -0.0000    0.0000    0.0000    0.0078    0.0023   -0.0000    0.0000    0.0000
       88 N2     4f1+       0.0000    0.0000    0.0000    0.0000    0.0000    0.0009    0.0003   -0.0000   -0.0000   -0.0005
       89 N2     4f2+       0.0000   -0.0000   -0.0000   -0.0000    0.0000   -0.0000    0.0000   -0.0000    0.0000   -0.0000
       90 N2     4f2+       0.0000    0.0000    0.0000    0.0000   -0.0000    0.0000   -0.0000    0.0000   -0.0000    0.0000
       91 N2     4f3+      -0.0000    0.0000    0.0000    0.0000    0.0000   -0.0000   -0.0000    0.0000   -0.0000   -0.0000
       92 N2     4f3+       0.0000   -0.0000   -0.0000    0.0000    0.0000    0.0000    0.0000   -0.0000    0.0000    0.0000
       93 X1     1s        -0.0036    0.0000   -0.0270    0.0000    0.1254   -0.0000   -0.0000    2.7075   -0.0000    0.0000
       94 X1     1s        -0.0002   -0.0000   -0.0030   -0.0000   -0.0272    0.0000    0.0000   -2.9981    0.0000    0.0000
       95 X1     1s         0.0002    0.0000    0.0015    0.0000    0.0054   -0.0000   -0.0000    2.6093   -0.0000   -0.0000
       96 X1     2px        0.0000   -0.0000   -0.0000    0.0000    0.0000    0.0227    0.0066   -0.0000    0.0165    0.6300
       97 X1     2px       -0.0000    0.0000    0.0000   -0.0000   -0.0000   -0.0154   -0.0045    0.0000   -0.0353   -1.3462
       98 X1     2px        0.0000   -0.0000   -0.0000    0.0000    0.0000    0.0051    0.0015   -0.0000    0.0471    1.7960
       99 X1     2py        0.0000   -0.0000   -0.0000    0.0000    0.0000   -0.0066    0.0227    0.0000    0.6300   -0.0165
      100 X1     2py       -0.0000    0.0000    0.0000   -0.0000   -0.0000    0.0045   -0.0154   -0.0000   -1.3462    0.0353
      101 X1     2py        0.0000   -0.0000   -0.0000    0.0000    0.0000   -0.0015    0.0051    0.0000    1.7960   -0.0471
      102 X1     2pz       -0.0000   -0.0005   -0.0000   -0.0064    0.0000    0.0000    0.0000   -0.0000   -0.0000   -0.0000
      103 X1     2pz        0.0000    0.0001    0.0000    0.0041   -0.0000   -0.0000   -0.0000    0.0000   -0.0000   -0.0000
      104 X1     2pz       -0.0000   -0.0000   -0.0000   -0.0013    0.0000    0.0000    0.0000   -0.0000    0.0000    0.0000
      105 X1     3d2-      -0.0000    0.0000    0.0000   -0.0000   -0.0000   -0.0000   -0.0000    0.0000    0.0000    0.0000
      106 X1     3d2-       0.0000   -0.0000   -0.0000   -0.0000    0.0000    0.0000    0.0000    0.0000   -0.0000   -0.0000
      107 X1     3d2-      -0.0000    0.0000    0.0000   -0.0000   -0.0000   -0.0000   -0.0000   -0.0000    0.0000    0.0000
      108 X1     3d1-       0.0000   -0.0000    0.0000   -0.0000   -0.0000    0.0000    0.0000    0.0000    0.0000   -0.0000
      109 X1     3d1-       0.0000    0.0000    0.0000    0.0000   -0.0000    0.0000   -0.0000    0.0000    0.0000   -0.0000
      110 X1     3d1-      -0.0000   -0.0000   -0.0000   -0.0000    0.0000   -0.0000    0.0000   -0.0000   -0.0000    0.0000
      111 X1     3d0       -0.0023   -0.0000    0.0038    0.0000    0.0516   -0.0000   -0.0000    0.2027    0.0000    0.0000
      112 X1     3d0       -0.0025   -0.0000   -0.0325    0.0000    0.0346   -0.0000   -0.0000    0.4974    0.0000    0.0000
      113 X1     3d0        0.0003    0.0000    0.0051   -0.0000   -0.0013    0.0000    0.0000   -0.1152   -0.0000   -0.0000
      114 X1     3d1+       0.0000   -0.0000   -0.0000   -0.0000   -0.0000   -0.0000   -0.0000    0.0000   -0.0000   -0.0000
      115 X1     3d1+       0.0000   -0.0000   -0.0000    0.0000   -0.0000   -0.0000   -0.0000    0.0000   -0.0000   -0.0000
      116 X1     3d1+      -0.0000    0.0000    0.0000   -0.0000    0.0000    0.0000    0.0000   -0.0000    0.0000    0.0000
      117 X1     3d2+      -0.0000    0.0000    0.0000    0.0000   -0.0000    0.0000   -0.0000    0.0000    0.0000   -0.0000
      118 X1     3d2+       0.0000   -0.0000   -0.0000   -0.0000    0.0000   -0.0000    0.0000    0.0000   -0.0000   -0.0000
      119 X1     3d2+      -0.0000    0.0000    0.0000    0.0000   -0.0000    0.0000   -0.0000   -0.0000    0.0000    0.0000

          Orbital           11        12        13        14        15        16        17        18        19        20    
          Energy            0.0119    0.0411    0.0411    0.0415    0.0416    0.0493    0.0493    0.0508    0.0538    0.0538
          Occ. No.          0.0000    0.0000    0.0000    0.0000    0.0000    0.0000    0.0000    0.0000    0.0000    0.0000

        1 N1     1s        -0.0006   -0.0000   -0.0000    0.0003    0.0002    0.0000    0.0000   -0.0071    0.0000   -0.0000
        2 N1     1s        -0.0115    0.0000   -0.0000   -0.0318    0.0510    0.0000    0.0000   -0.0327    0.0000   -0.0000
        3 N1     1s         0.0001    0.0000    0.0000   -0.0012    0.0014   -0.0000    0.0000   -0.0037   -0.0000    0.0000
        4 N1     1s         0.0825    0.0000   -0.0000   -0.2056    0.0452   -0.0000    0.0000   -0.3268    0.0000    0.0000
        5 N1     1s         1.0821   -0.0000   -0.0000   -2.6604   -2.9273   -0.0000   -0.0000   -3.8373    0.0000    0.0000
        6 N1     2px       -0.0000    0.0001   -0.0378   -0.0000   -0.0000   -0.0001   -0.0393   -0.0000   -0.0000    0.0000
        7 N1     2px       -0.0000   -0.0000    0.0090    0.0000    0.0000   -0.0000   -0.0086    0.0000    0.0000   -0.0000
        8 N1     2px        0.0000    0.0001   -0.0358   -0.0000    0.0000   -0.0005   -0.3692    0.0000   -0.0000   -0.0000
        9 N1     2px       -0.0000   -0.0006    0.2386   -0.0000    0.0000   -0.0117   -8.5942   -0.0000    0.0000    0.0000
       10 N1     2py       -0.0000   -0.0378   -0.0001   -0.0000   -0.0000   -0.0393    0.0001    0.0000   -0.0000   -0.0000
       11 N1     2py        0.0000    0.0090    0.0000    0.0000    0.0000   -0.0086    0.0000   -0.0000    0.0000    0.0000
       12 N1     2py        0.0000   -0.0358   -0.0001   -0.0000    0.0000   -0.3692    0.0005    0.0000    0.0000    0.0000
       13 N1     2py       -0.0000    0.2386    0.0006   -0.0000    0.0000   -8.5942    0.0117    0.0000    0.0000   -0.0000
       14 N1     2pz       -0.0035   -0.0000   -0.0000   -0.0140    0.0506   -0.0000   -0.0000    0.0020    0.0000   -0.0000
       15 N1     2pz       -0.0023   -0.0000    0.0000    0.0047    0.0020    0.0000    0.0000    0.0182   -0.0000   -0.0000
       16 N1     2pz       -0.0441    0.0000    0.0000    0.0918   -0.0257   -0.0000   -0.0000   -0.1742   -0.0000   -0.0000
       17 N1     2pz       -0.4867    0.0000    0.0000    1.1879   -3.1522   -0.0000   -0.0000   -5.7526    0.0000    0.0000
       18 N1     3d2-       0.0000    0.0000    0.0000    0.0000    0.0000    0.0000   -0.0000   -0.0000   -0.0012   -0.0000
       19 N1     3d2-       0.0000   -0.0000   -0.0000   -0.0000   -0.0000   -0.0000    0.0000   -0.0000    0.0119    0.0000
       20 N1     3d2-      -0.0000   -0.0000    0.0000   -0.0000    0.0000    0.0000    0.0000   -0.0000   -0.0682   -0.0000
       21 N1     3d1-       0.0000    0.0013    0.0000    0.0000    0.0000   -0.0023    0.0000   -0.0000    0.0000    0.0000
       22 N1     3d1-      -0.0000    0.0033    0.0000    0.0000   -0.0000    0.0296   -0.0000    0.0000    0.0000   -0.0000
       23 N1     3d1-       0.0000   -0.0042   -0.0000    0.0000   -0.0000    0.1364   -0.0002   -0.0000   -0.0000   -0.0000
       24 N1     3d0        0.0002    0.0000   -0.0000    0.0003   -0.0011   -0.0000    0.0000   -0.0013   -0.0000   -0.0000
       25 N1     3d0        0.0007   -0.0000   -0.0000    0.0023    0.0062    0.0000    0.0000    0.0072    0.0000    0.0000
       26 N1     3d0        0.0198   -0.0000   -0.0000   -0.0452   -0.0464    0.0000   -0.0000    0.1220    0.0000    0.0000
       27 N1     3d1+       0.0000   -0.0000    0.0013    0.0000    0.0000   -0.0000   -0.0023    0.0000    0.0000   -0.0000
       28 N1     3d1+      -0.0000   -0.0000    0.0033    0.0000   -0.0000    0.0000    0.0296   -0.0000   -0.0000    0.0000
       29 N1     3d1+       0.0000    0.0000   -0.0042    0.0000   -0.0000    0.0002    0.1364   -0.0000    0.0000    0.0000
       30 N1     3d2+       0.0000    0.0000   -0.0000   -0.0000    0.0000    0.0000   -0.0000    0.0000    0.0000   -0.0012
       31 N1     3d2+      -0.0000   -0.0000   -0.0000    0.0000   -0.0000   -0.0000    0.0000   -0.0000   -0.0000    0.0119
       32 N1     3d2+      -0.0000    0.0000   -0.0000   -0.0000   -0.0000   -0.0000   -0.0000   -0.0000    0.0000   -0.0682
       33 N1     4f3-       0.0000   -0.0000    0.0000    0.0000    0.0000   -0.0000   -0.0000    0.0000   -0.0000    0.0000
       34 N1     4f3-      -0.0000    0.0000   -0.0000   -0.0000    0.0000    0.0000    0.0000   -0.0000    0.0000   -0.0000
       35 N1     4f2-      -0.0000   -0.0000   -0.0000   -0.0000   -0.0000    0.0000    0.0000    0.0000    0.0001    0.0000
       36 N1     4f2-      -0.0000   -0.0000   -0.0000   -0.0000    0.0000   -0.0000   -0.0000    0.0000    0.0003    0.0000
       37 N1     4f1-       0.0000   -0.0010   -0.0000    0.0000   -0.0000   -0.0004    0.0000   -0.0000   -0.0000   -0.0000
       38 N1     4f1-       0.0000    0.0011    0.0000   -0.0000    0.0000   -0.0205    0.0000   -0.0000    0.0000    0.0000
       39 N1     4f0        0.0002   -0.0000    0.0000   -0.0006   -0.0011    0.0000    0.0000    0.0003   -0.0000    0.0000
       40 N1     4f0       -0.0022    0.0000    0.0000    0.0046    0.0025   -0.0000    0.0000   -0.0133   -0.0000   -0.0000
       41 N1     4f1+      -0.0000    0.0000   -0.0010    0.0000   -0.0000   -0.0000   -0.0004   -0.0000    0.0000   -0.0000
       42 N1     4f1+       0.0000   -0.0000    0.0011   -0.0000    0.0000   -0.0000   -0.0205    0.0000    0.0000   -0.0000
       43 N1     4f2+      -0.0000   -0.0000   -0.0000   -0.0000   -0.0000    0.0000   -0.0000   -0.0000   -0.0000    0.0001
       44 N1     4f2+       0.0000   -0.0000    0.0000   -0.0000    0.0000    0.0000   -0.0000    0.0000   -0.0000    0.0003
       45 N1     4f3+      -0.0000   -0.0000    0.0000   -0.0000    0.0000    0.0000    0.0000   -0.0000    0.0000   -0.0000
       46 N1     4f3+       0.0000    0.0000   -0.0000    0.0000    0.0000   -0.0000   -0.0000    0.0000   -0.0000   -0.0000
       47 N2     1s         0.0006    0.0000    0.0000   -0.0003    0.0002   -0.0000   -0.0000   -0.0071   -0.0000    0.0000
       48 N2     1s         0.0115   -0.0000    0.0000    0.0318    0.0510   -0.0000   -0.0000   -0.0327   -0.0000    0.0000
       49 N2     1s        -0.0001   -0.0000   -0.0000    0.0012    0.0014   -0.0000    0.0000   -0.0037   -0.0000   -0.0000
       50 N2     1s        -0.0825    0.0000    0.0000    0.2056    0.0452   -0.0000   -0.0000   -0.3268   -0.0000   -0.0000
       51 N2     1s        -1.0821    0.0000    0.0000    2.6604   -2.9273   -0.0000   -0.0000   -3.8373   -0.0000   -0.0000
       52 N2     2px       -0.0000    0.0001   -0.0378    0.0000    0.0000    0.0001    0.0393    0.0000   -0.0000   -0.0000
       53 N2     2px        0.0000   -0.0000    0.0090   -0.0000   -0.0000    0.0000    0.0086   -0.0000    0.0000    0.0000
       54 N2     2px       -0.0000    0.0001   -0.0358    0.0000   -0.0000    0.0005    0.3692   -0.0000    0.0000    0.0000
       55 N2     2px        0.0000   -0.0006    0.2386   -0.0000   -0.0000    0.0117    8.5942    0.0000   -0.0000   -0.0000
       56 N2     2py        0.0000   -0.0378   -0.0001    0.0000    0.0000    0.0393   -0.0001   -0.0000    0.0000    0.0000
       57 N2     2py       -0.0000    0.0090    0.0000   -0.0000   -0.0000    0.0086   -0.0000    0.0000    0.0000   -0.0000
       58 N2     2py        0.0000   -0.0358   -0.0001    0.0000   -0.0000    0.3692   -0.0005   -0.0000   -0.0000   -0.0000
       59 N2     2py        0.0000    0.2386    0.0006    0.0000   -0.0000    8.5942   -0.0117   -0.0000   -0.0000    0.0000
       60 N2     2pz       -0.0035    0.0000   -0.0000   -0.0140   -0.0506    0.0000    0.0000   -0.0020    0.0000    0.0000
       61 N2     2pz       -0.0023   -0.0000    0.0000    0.0047   -0.0020   -0.0000   -0.0000   -0.0182   -0.0000   -0.0000
       62 N2     2pz       -0.0441   -0.0000    0.0000    0.0918    0.0257    0.0000   -0.0000    0.1742   -0.0000   -0.0000
       63 N2     2pz       -0.4867   -0.0000    0.0000    1.1879    3.1522    0.0000    0.0000    5.7526   -0.0000   -0.0000
       64 N2     3d2-      -0.0000   -0.0000   -0.0000   -0.0000   -0.0000    0.0000    0.0000    0.0000   -0.0012   -0.0000
       65 N2     3d2-      -0.0000    0.0000   -0.0000    0.0000    0.0000    0.0000   -0.0000    0.0000    0.0119    0.0000
       66 N2     3d2-       0.0000   -0.0000   -0.0000    0.0000    0.0000   -0.0000   -0.0000    0.0000   -0.0682   -0.0000
       67 N2     3d1-       0.0000   -0.0013   -0.0000    0.0000    0.0000   -0.0023    0.0000   -0.0000    0.0000   -0.0000
       68 N2     3d1-      -0.0000   -0.0033   -0.0000    0.0000   -0.0000    0.0296   -0.0000    0.0000   -0.0000   -0.0000
       69 N2     3d1-       0.0000    0.0042    0.0000    0.0000   -0.0000    0.1364   -0.0002   -0.0000   -0.0000   -0.0000
       70 N2     3d0       -0.0002   -0.0000    0.0000   -0.0003   -0.0011    0.0000    0.0000   -0.0013    0.0000    0.0000
       71 N2     3d0       -0.0007   -0.0000    0.0000   -0.0023    0.0062    0.0000   -0.0000    0.0072   -0.0000   -0.0000
       72 N2     3d0       -0.0198   -0.0000    0.0000    0.0452   -0.0464    0.0000    0.0000    0.1220   -0.0000   -0.0000
       73 N2     3d1+       0.0000    0.0000   -0.0013    0.0000    0.0000   -0.0000   -0.0023    0.0000   -0.0000   -0.0000
       74 N2     3d1+      -0.0000    0.0000   -0.0033    0.0000   -0.0000    0.0000    0.0296   -0.0000    0.0000    0.0000
       75 N2     3d1+      -0.0000   -0.0000    0.0042    0.0000   -0.0000    0.0002    0.1364   -0.0000    0.0000    0.0000
       76 N2     3d2+      -0.0000   -0.0000   -0.0000   -0.0000   -0.0000    0.0000    0.0000   -0.0000    0.0000   -0.0012
       77 N2     3d2+       0.0000   -0.0000    0.0000   -0.0000    0.0000    0.0000   -0.0000    0.0000   -0.0000    0.0119
       78 N2     3d2+       0.0000   -0.0000   -0.0000   -0.0000    0.0000    0.0000   -0.0000    0.0000    0.0000   -0.0682
       79 N2     4f3-      -0.0000   -0.0000   -0.0000    0.0000    0.0000    0.0000   -0.0000    0.0000   -0.0000   -0.0000
       80 N2     4f3-       0.0000    0.0000    0.0000    0.0000    0.0000   -0.0000    0.0000    0.0000    0.0000    0.0000
       81 N2     4f2-      -0.0000   -0.0000   -0.0000   -0.0000    0.0000    0.0000    0.0000   -0.0000   -0.0001   -0.0000
       82 N2     4f2-      -0.0000    0.0000   -0.0000   -0.0000   -0.0000   -0.0000   -0.0000    0.0000   -0.0003   -0.0000
       83 N2     4f1-      -0.0000   -0.0010   -0.0000   -0.0000    0.0000    0.0004   -0.0000    0.0000    0.0000   -0.0000
       84 N2     4f1-      -0.0000    0.0011    0.0000    0.0000   -0.0000    0.0205   -0.0000    0.0000   -0.0000   -0.0000
       85 N2     4f0        0.0002   -0.0000    0.0000   -0.0006    0.0011    0.0000   -0.0000   -0.0003    0.0000    0.0000
       86 N2     4f0       -0.0022    0.0000    0.0000    0.0046   -0.0025    0.0000   -0.0000    0.0133   -0.0000   -0.0000
       87 N2     4f1+       0.0000    0.0000   -0.0010    0.0000   -0.0000    0.0000    0.0004    0.0000   -0.0000   -0.0000
       88 N2     4f1+      -0.0000   -0.0000    0.0011    0.0000   -0.0000    0.0000    0.0205   -0.0000    0.0000    0.0000
       89 N2     4f2+      -0.0000    0.0000   -0.0000    0.0000   -0.0000    0.0000   -0.0000   -0.0000    0.0000   -0.0001
       90 N2     4f2+       0.0000   -0.0000    0.0000   -0.0000    0.0000    0.0000    0.0000    0.0000    0.0000   -0.0003
       91 N2     4f3+       0.0000    0.0000    0.0000    0.0000    0.0000   -0.0000   -0.0000    0.0000    0.0000    0.0000
       92 N2     4f3+      -0.0000   -0.0000   -0.0000   -0.0000    0.0000    0.0000    0.0000   -0.0000    0.0000   -0.0000
       93 X1     1s        -0.0000    0.0000    0.0000    0.0000    8.3494    0.0000    0.0000    6.8654   -0.0000   -0.0000
       94 X1     1s         0.0000   -0.0000   -0.0000   -0.0000   -7.9052   -0.0000   -0.0000   -1.6571   -0.0000    0.0000
       95 X1     1s         0.0000    0.0000    0.0000    0.0000    3.4875    0.0000    0.0000    0.2152    0.0000   -0.0000
       96 X1     2px       -0.0000    0.0042   -1.7015    0.0000    0.0000   -0.0000    0.0000    0.0000   -0.0000   -0.0000
       97 X1     2px        0.0000   -0.0089    3.6354   -0.0000   -0.0000    0.0000   -0.0000   -0.0000    0.0000    0.0000
       98 X1     2px       -0.0000    0.0048   -1.9507    0.0000    0.0000   -0.0000    0.0000    0.0000   -0.0000   -0.0000
       99 X1     2py       -0.0000   -1.7015   -0.0042    0.0000    0.0000    0.0000    0.0000    0.0000   -0.0000    0.0000
      100 X1     2py        0.0000    3.6354    0.0089   -0.0000   -0.0000    0.0000   -0.0000   -0.0000    0.0000   -0.0000
      101 X1     2py       -0.0000   -1.9507   -0.0048    0.0000    0.0000   -0.0000    0.0000    0.0000   -0.0000    0.0000
      102 X1     2pz        0.9744   -0.0000   -0.0000   -2.5888    0.0000    0.0000    0.0000    0.0000    0.0000    0.0000
      103 X1     2pz       -1.5662    0.0000    0.0000    4.0929   -0.0000   -0.0000   -0.0000   -0.0000   -0.0000   -0.0000
      104 X1     2pz        1.8780   -0.0000   -0.0000   -2.0543    0.0000    0.0000    0.0000    0.0000    0.0000    0.0000
      105 X1     3d2-      -0.0000    0.0000   -0.0000    0.0000   -0.0000   -0.0000    0.0000    0.0000    0.4296    0.0001
      106 X1     3d2-       0.0000   -0.0000    0.0000   -0.0000    0.0000    0.0000    0.0000   -0.0000   -0.9757   -0.0002
      107 X1     3d2-       0.0000    0.0000   -0.0000    0.0000   -0.0000   -0.0000   -0.0000    0.0000    1.5672    0.0003
      108 X1     3d1-      -0.0000   -0.0000   -0.0000    0.0000   -0.0000    0.8162   -0.0011   -0.0000   -0.0000    0.0000
      109 X1     3d1-       0.0000   -0.0000   -0.0000    0.0000   -0.0000    4.2510   -0.0058   -0.0000   -0.0000    0.0000
      110 X1     3d1-      -0.0000    0.0000    0.0000   -0.0000    0.0000   -2.0902    0.0028    0.0000    0.0000   -0.0000
      111 X1     3d0       -0.0000    0.0000    0.0000    0.0000    0.6019    0.0000    0.0000    0.6023   -0.0000    0.0000
      112 X1     3d0       -0.0000   -0.0000   -0.0000    0.0000    1.6271    0.0000    0.0000    3.6644   -0.0000   -0.0000
      113 X1     3d0        0.0000    0.0000    0.0000   -0.0000   -0.3896   -0.0000   -0.0000   -1.9900    0.0000    0.0000
      114 X1     3d1+       0.0000    0.0000    0.0000    0.0000   -0.0000    0.0011    0.8162    0.0000   -0.0000   -0.0000
      115 X1     3d1+       0.0000    0.0000    0.0000   -0.0000   -0.0000    0.0058    4.2510    0.0000   -0.0000   -0.0000
      116 X1     3d1+       0.0000   -0.0000   -0.0000    0.0000    0.0000   -0.0028   -2.0902   -0.0000    0.0000    0.0000
      117 X1     3d2+      -0.0000    0.0000   -0.0000    0.0000    0.0000    0.0000    0.0000    0.0000   -0.0001    0.4296
      118 X1     3d2+      -0.0000   -0.0000   -0.0000   -0.0000   -0.0000   -0.0000   -0.0000   -0.0000    0.0002   -0.9757
      119 X1     3d2+       0.0000    0.0000    0.0000    0.0000    0.0000    0.0000    0.0000    0.0000   -0.0003    1.5672

          Orbital           21        22        23        24        25        26        27        28        29        30    
          Energy            0.1045    0.1058    0.1058    0.1184    0.1186    0.1186    0.1403    0.1566    0.1566    0.1724
          Occ. No.          0.0000    0.0000    0.0000    0.0000    0.0000    0.0000    0.0000    0.0000    0.0000    0.0000

        1 N1     1s         0.0032    0.0000   -0.0000   -0.0034    0.0000    0.0000   -0.0128    0.0000    0.0000   -0.0000
        2 N1     1s         0.0829    0.0000   -0.0000   -0.1087    0.0000    0.0000   -0.0158    0.0000    0.0000   -0.0000
        3 N1     1s         0.0009   -0.0000    0.0000    0.0004   -0.0000   -0.0000   -0.0081    0.0000   -0.0000   -0.0000
        4 N1     1s        -1.0064   -0.0000    0.0000    0.0005    0.0000    0.0000   -0.7481    0.0000    0.0000   -0.0000
        5 N1     1s        -9.2860   -0.0000    0.0000   -7.6355    0.0000    0.0000   -9.0422   -0.0000    0.0000   -0.0000
        6 N1     2px       -0.0000   -0.0743    0.0002    0.0000    0.0000    0.3390    0.0000    0.0000   -0.0000   -0.0000
        7 N1     2px        0.0000   -0.0195    0.0001   -0.0000   -0.0000   -0.0114    0.0000   -0.0000    0.0000   -0.0000
        8 N1     2px       -0.0000    0.0724   -0.0002   -0.0000   -0.0000   -0.3878    0.0000    0.0000    0.0000   -0.0001
        9 N1     2px        0.0000   -0.7234    0.0020   -0.0000   -0.0013  -13.0346    0.0000   -0.0000   -0.0000   -0.0013
       10 N1     2py       -0.0000    0.0002    0.0743    0.0000    0.3390   -0.0000    0.0000   -0.0000   -0.0000   -0.4632
       11 N1     2py        0.0000    0.0001    0.0195    0.0000   -0.0114    0.0000   -0.0000    0.0000    0.0000   -0.0163
       12 N1     2py       -0.0000   -0.0002   -0.0724   -0.0000   -0.3878    0.0000   -0.0000   -0.0000    0.0000   -0.9181
       13 N1     2py       -0.0000    0.0020    0.7234   -0.0000  -13.0346    0.0013   -0.0000    0.0000    0.0000  -21.2549
       14 N1     2pz        0.0241   -0.0000   -0.0000   -0.0886    0.0000    0.0000   -0.0267   -0.0000    0.0000    0.0000
       15 N1     2pz        0.0330    0.0000    0.0000    0.0110   -0.0000   -0.0000    0.0459   -0.0000   -0.0000    0.0000
       16 N1     2pz        0.5746    0.0000   -0.0000   -0.0671    0.0000   -0.0000   -0.3856    0.0000   -0.0000    0.0000
       17 N1     2pz        3.9835    0.0000    0.0000   -7.7449    0.0000    0.0000  -13.7451   -0.0000    0.0000    0.0000
       18 N1     3d2-      -0.0000    0.0000   -0.0000   -0.0000    0.0000   -0.0000    0.0000    0.0055    0.0000    0.0000
       19 N1     3d2-       0.0000    0.0000    0.0000    0.0000   -0.0000    0.0000   -0.0000   -0.0169   -0.0000   -0.0000
       20 N1     3d2-      -0.0000    0.0000   -0.0000    0.0000    0.0000   -0.0000    0.0000    0.1815    0.0000    0.0000
       21 N1     3d1-       0.0000   -0.0000   -0.0031    0.0000    0.0039   -0.0000   -0.0000   -0.0000   -0.0000   -0.0112
       22 N1     3d1-      -0.0000   -0.0000   -0.0065    0.0000    0.0680   -0.0000    0.0000    0.0000    0.0000    0.0441
       23 N1     3d1-      -0.0000   -0.0000   -0.0122    0.0000    0.1881   -0.0000    0.0000   -0.0000    0.0000    0.2339
       24 N1     3d0       -0.0017    0.0000   -0.0000   -0.0017    0.0000    0.0000    0.0010    0.0000   -0.0000    0.0000
       25 N1     3d0       -0.0200   -0.0000    0.0000    0.0061   -0.0000    0.0000    0.0300    0.0000    0.0000    0.0000
       26 N1     3d0       -0.1825   -0.0000    0.0000   -0.1499    0.0000    0.0000    0.2672   -0.0000    0.0000   -0.0000
       27 N1     3d1+       0.0000    0.0031   -0.0000    0.0000    0.0000    0.0039   -0.0000    0.0000   -0.0000   -0.0000
       28 N1     3d1+      -0.0000    0.0065   -0.0000    0.0000    0.0000    0.0680   -0.0000    0.0000   -0.0000    0.0000
       29 N1     3d1+      -0.0000    0.0122   -0.0000    0.0000    0.0000    0.1881    0.0000    0.0000   -0.0000    0.0000
       30 N1     3d2+      -0.0000   -0.0000    0.0000    0.0000   -0.0000   -0.0000   -0.0000    0.0000   -0.0055    0.0000
       31 N1     3d2+       0.0000    0.0000   -0.0000   -0.0000    0.0000   -0.0000   -0.0000   -0.0000    0.0169    0.0000
       32 N1     3d2+      -0.0000   -0.0000    0.0000   -0.0000   -0.0000   -0.0000   -0.0000    0.0000   -0.1815   -0.0000
       33 N1     4f3-      -0.0000    0.0000   -0.0000   -0.0000   -0.0000    0.0000   -0.0000    0.0000    0.0000   -0.0000
       34 N1     4f3-       0.0000   -0.0000    0.0000    0.0000    0.0000   -0.0000    0.0000   -0.0000    0.0000    0.0000
       35 N1     4f2-       0.0000    0.0000    0.0000   -0.0000    0.0000    0.0000   -0.0000   -0.0006   -0.0000    0.0000
       36 N1     4f2-       0.0000   -0.0000    0.0000    0.0000    0.0000   -0.0000    0.0000   -0.0018   -0.0000   -0.0000
       37 N1     4f1-       0.0000    0.0000    0.0003   -0.0000   -0.0036    0.0000    0.0000   -0.0000   -0.0000    0.0011
       38 N1     4f1-       0.0000    0.0000    0.0030    0.0000   -0.0328    0.0000   -0.0000   -0.0000    0.0000   -0.0359
       39 N1     4f0        0.0000    0.0000    0.0000   -0.0027   -0.0000    0.0000   -0.0004   -0.0000   -0.0000   -0.0000
       40 N1     4f0        0.0154    0.0000   -0.0000    0.0109    0.0000    0.0000   -0.0309   -0.0000   -0.0000    0.0000
       41 N1     4f1+      -0.0000   -0.0003    0.0000   -0.0000   -0.0000   -0.0036   -0.0000    0.0000   -0.0000    0.0000
       42 N1     4f1+       0.0000   -0.0030    0.0000   -0.0000   -0.0000   -0.0328    0.0000   -0.0000    0.0000   -0.0000
       43 N1     4f2+      -0.0000   -0.0000   -0.0000   -0.0000   -0.0000    0.0000   -0.0000   -0.0000    0.0006   -0.0000
       44 N1     4f2+       0.0000    0.0000    0.0000    0.0000    0.0000    0.0000    0.0000   -0.0000    0.0018    0.0000
       45 N1     4f3+       0.0000   -0.0000    0.0000    0.0000   -0.0000    0.0000    0.0000    0.0000   -0.0000   -0.0000
       46 N1     4f3+      -0.0000    0.0000   -0.0000    0.0000   -0.0000   -0.0000   -0.0000   -0.0000   -0.0000    0.0000
       47 N2     1s        -0.0032    0.0000   -0.0000   -0.0034   -0.0000    0.0000   -0.0128    0.0000    0.0000    0.0000
       48 N2     1s        -0.0829    0.0000   -0.0000   -0.1087    0.0000    0.0000   -0.0158    0.0000   -0.0000    0.0000
       49 N2     1s        -0.0009   -0.0000    0.0000    0.0004    0.0000    0.0000   -0.0081   -0.0000    0.0000   -0.0000
       50 N2     1s         1.0064    0.0000   -0.0000    0.0005   -0.0000   -0.0000   -0.7481   -0.0000   -0.0000    0.0000
       51 N2     1s         9.2860    0.0000    0.0000   -7.6355    0.0000    0.0000   -9.0422    0.0000   -0.0000    0.0000
       52 N2     2px        0.0000   -0.0743    0.0002   -0.0000   -0.0000   -0.3390   -0.0000    0.0000    0.0000    0.0000
       53 N2     2px       -0.0000   -0.0195    0.0001    0.0000    0.0000    0.0114   -0.0000   -0.0000   -0.0000    0.0000
       54 N2     2px       -0.0000    0.0724   -0.0002    0.0000    0.0000    0.3878   -0.0000    0.0000   -0.0000    0.0001
       55 N2     2px        0.0000   -0.7234    0.0020    0.0000    0.0013   13.0346   -0.0000    0.0000    0.0000    0.0013
       56 N2     2py        0.0000    0.0002    0.0743   -0.0000   -0.3390    0.0000   -0.0000    0.0000   -0.0000    0.4632
       57 N2     2py       -0.0000    0.0001    0.0195   -0.0000    0.0114   -0.0000    0.0000   -0.0000    0.0000    0.0163
       58 N2     2py        0.0000   -0.0002   -0.0724    0.0000    0.3878   -0.0000    0.0000    0.0000    0.0000    0.9181
       59 N2     2py        0.0000    0.0020    0.7234    0.0000   13.0346   -0.0013    0.0000   -0.0000   -0.0000   21.2549
       60 N2     2pz        0.0241    0.0000   -0.0000    0.0886    0.0000   -0.0000    0.0267   -0.0000   -0.0000   -0.0000
       61 N2     2pz        0.0330    0.0000    0.0000   -0.0110   -0.0000   -0.0000   -0.0459   -0.0000   -0.0000    0.0000
       62 N2     2pz        0.5746    0.0000    0.0000    0.0671   -0.0000   -0.0000    0.3856   -0.0000   -0.0000    0.0000
       63 N2     2pz        3.9835    0.0000   -0.0000    7.7449   -0.0000   -0.0000   13.7451    0.0000   -0.0000    0.0000
       64 N2     3d2-       0.0000   -0.0000    0.0000    0.0000    0.0000    0.0000    0.0000    0.0055    0.0000   -0.0000
       65 N2     3d2-       0.0000    0.0000    0.0000   -0.0000    0.0000    0.0000    0.0000   -0.0169   -0.0000   -0.0000
       66 N2     3d2-       0.0000    0.0000    0.0000    0.0000    0.0000   -0.0000   -0.0000    0.1815    0.0000   -0.0000
       67 N2     3d1-       0.0000    0.0000    0.0031    0.0000    0.0039   -0.0000   -0.0000    0.0000    0.0000   -0.0112
       68 N2     3d1-      -0.0000    0.0000    0.0065    0.0000    0.0680   -0.0000    0.0000   -0.0000    0.0000    0.0441
       69 N2     3d1-       0.0000    0.0000    0.0122    0.0000    0.1881   -0.0000    0.0000   -0.0000    0.0000    0.2339
       70 N2     3d0        0.0017    0.0000   -0.0000   -0.0017    0.0000   -0.0000    0.0010   -0.0000   -0.0000   -0.0000
       71 N2     3d0        0.0200   -0.0000    0.0000    0.0061   -0.0000   -0.0000    0.0300   -0.0000   -0.0000    0.0000
       72 N2     3d0        0.1825   -0.0000    0.0000   -0.1499    0.0000    0.0000    0.2672   -0.0000   -0.0000    0.0000
       73 N2     3d1+       0.0000   -0.0031    0.0000    0.0000    0.0000    0.0039   -0.0000   -0.0000    0.0000   -0.0000
       74 N2     3d1+      -0.0000   -0.0065    0.0000    0.0000    0.0000    0.0680   -0.0000    0.0000   -0.0000    0.0000
       75 N2     3d1+       0.0000   -0.0122    0.0000    0.0000    0.0000    0.1881    0.0000   -0.0000   -0.0000    0.0000
       76 N2     3d2+       0.0000    0.0000   -0.0000   -0.0000    0.0000   -0.0000   -0.0000    0.0000   -0.0055   -0.0000
       77 N2     3d2+       0.0000    0.0000   -0.0000    0.0000   -0.0000    0.0000    0.0000   -0.0000    0.0169    0.0000
       78 N2     3d2+      -0.0000   -0.0000    0.0000    0.0000   -0.0000   -0.0000   -0.0000    0.0000   -0.1815    0.0000
       79 N2     4f3-      -0.0000   -0.0000   -0.0000   -0.0000    0.0000   -0.0000    0.0000    0.0000    0.0000    0.0000
       80 N2     4f3-       0.0000    0.0000    0.0000    0.0000   -0.0000    0.0000   -0.0000   -0.0000   -0.0000   -0.0000
       81 N2     4f2-       0.0000   -0.0000   -0.0000   -0.0000   -0.0000   -0.0000    0.0000    0.0006    0.0000    0.0000
       82 N2     4f2-      -0.0000   -0.0000    0.0000    0.0000    0.0000   -0.0000   -0.0000    0.0018    0.0000   -0.0000
       83 N2     4f1-      -0.0000    0.0000    0.0003    0.0000    0.0036   -0.0000   -0.0000    0.0000    0.0000   -0.0011
       84 N2     4f1-       0.0000    0.0000    0.0030   -0.0000    0.0328   -0.0000    0.0000    0.0000   -0.0000    0.0359
       85 N2     4f0        0.0000   -0.0000   -0.0000    0.0027   -0.0000   -0.0000    0.0004    0.0000   -0.0000    0.0000
       86 N2     4f0        0.0154   -0.0000    0.0000   -0.0109    0.0000    0.0000    0.0309   -0.0000   -0.0000    0.0000
       87 N2     4f1+      -0.0000   -0.0003    0.0000    0.0000    0.0000    0.0036    0.0000   -0.0000    0.0000   -0.0000
       88 N2     4f1+      -0.0000   -0.0030    0.0000    0.0000    0.0000    0.0328   -0.0000   -0.0000   -0.0000    0.0000
       89 N2     4f2+       0.0000   -0.0000    0.0000   -0.0000   -0.0000   -0.0000   -0.0000    0.0000   -0.0006    0.0000
       90 N2     4f2+      -0.0000    0.0000    0.0000    0.0000   -0.0000    0.0000    0.0000    0.0000   -0.0018    0.0000
       91 N2     4f3+      -0.0000   -0.0000    0.0000    0.0000   -0.0000   -0.0000    0.0000    0.0000    0.0000   -0.0000
       92 N2     4f3+       0.0000    0.0000    0.0000    0.0000    0.0000    0.0000   -0.0000   -0.0000    0.0000   -0.0000
       93 X1     1s         0.0000    0.0000   -0.0000   19.1264   -0.0000   -0.0000   15.0072   -0.0000   -0.0000    0.0000
       94 X1     1s        -0.0000   -0.0000    0.0000  -10.3229    0.0000    0.0000   -2.9825    0.0000    0.0000   -0.0000
       95 X1     1s         0.0000    0.0000   -0.0000    2.9811   -0.0000   -0.0000    0.4192   -0.0000   -0.0000    0.0000
       96 X1     2px       -0.0000    4.6378   -0.0130    0.0000   -0.0000   -0.0000   -0.0000    0.0000   -0.0000   -0.0000
       97 X1     2px        0.0000   -4.2885    0.0120   -0.0000    0.0000    0.0000    0.0000   -0.0000    0.0000    0.0000
       98 X1     2px       -0.0000    1.5053   -0.0042    0.0000   -0.0000   -0.0000   -0.0000    0.0000   -0.0000   -0.0000
       99 X1     2py       -0.0000   -0.0130   -4.6378   -0.0000   -0.0000   -0.0000   -0.0000    0.0000    0.0000   -0.0000
      100 X1     2py        0.0000    0.0120    4.2885    0.0000    0.0000    0.0000    0.0000   -0.0000   -0.0000    0.0000
      101 X1     2py       -0.0000   -0.0042   -1.5053    0.0000   -0.0000   -0.0000   -0.0000   -0.0000    0.0000   -0.0000
      102 X1     2pz       -7.0769   -0.0000    0.0000   -0.0000   -0.0000   -0.0000   -0.0000   -0.0000    0.0000   -0.0000
      103 X1     2pz        5.1369    0.0000   -0.0000   -0.0000    0.0000    0.0000    0.0000    0.0000   -0.0000    0.0000
      104 X1     2pz       -1.6612   -0.0000    0.0000    0.0000   -0.0000    0.0000   -0.0000   -0.0000    0.0000   -0.0000
      105 X1     3d2-       0.0000   -0.0000    0.0000   -0.0000   -0.0000    0.0000    0.0000   -1.0853   -0.0000   -0.0000
      106 X1     3d2-      -0.0000    0.0000    0.0000    0.0000   -0.0000   -0.0000   -0.0000    2.6604    0.0001    0.0000
      107 X1     3d2-       0.0000   -0.0000   -0.0000   -0.0000    0.0000    0.0000    0.0000   -1.4089   -0.0000   -0.0000
      108 X1     3d1-       0.0000   -0.0000   -0.0000    0.0000    1.3534   -0.0001    0.0000    0.0000   -0.0000    2.0533
      109 X1     3d1-       0.0000   -0.0000   -0.0000    0.0000    6.5655   -0.0007    0.0000   -0.0000   -0.0000    9.4980
      110 X1     3d1-      -0.0000    0.0000    0.0000   -0.0000   -1.6655    0.0002   -0.0000    0.0000    0.0000   -1.7836
      111 X1     3d0        0.0000    0.0000   -0.0000    1.4913   -0.0000   -0.0000    1.5362   -0.0000   -0.0000    0.0000
      112 X1     3d0        0.0000   -0.0000    0.0000    3.7184   -0.0000   -0.0000    8.4911    0.0000   -0.0000    0.0000
      113 X1     3d0       -0.0000    0.0000   -0.0000   -0.4784    0.0000    0.0000   -2.0242   -0.0000    0.0000   -0.0000
      114 X1     3d1+       0.0000    0.0000   -0.0000    0.0000    0.0001    1.3534   -0.0000    0.0000    0.0000    0.0001
      115 X1     3d1+       0.0000    0.0000   -0.0000    0.0000    0.0007    6.5655   -0.0000    0.0000    0.0000    0.0006
      116 X1     3d1+      -0.0000   -0.0000    0.0000   -0.0000   -0.0002   -1.6655   -0.0000   -0.0000   -0.0000   -0.0001
      117 X1     3d2+       0.0000    0.0000   -0.0000    0.0000   -0.0000    0.0000    0.0000   -0.0000    1.0853    0.0000
      118 X1     3d2+      -0.0000   -0.0000    0.0000   -0.0000    0.0000   -0.0000   -0.0000    0.0001   -2.6604   -0.0000
      119 X1     3d2+       0.0000    0.0000   -0.0000    0.0000   -0.0000    0.0000    0.0000   -0.0000    1.4089    0.0000

          Orbital           31        32        33        34        35        36        37        38        39        40    
          Energy            0.1724    0.2026    0.2624    0.2624    0.2787    0.3046    0.3153    0.3153    0.3303    0.3536
          Occ. No.          0.0000    0.0000    0.0000    0.0000    0.0000    0.0000    0.0000    0.0000    0.0000    0.0000

        1 N1     1s        -0.0000   -0.0043    0.0000    0.0000   -0.0096   -0.0235    0.0000    0.0000   -0.0066    0.0000
        2 N1     1s        -0.0000   -0.1123    0.0000    0.0000    0.0497   -0.2516    0.0000    0.0000    0.1536    0.0000
        3 N1     1s         0.0000    0.0109   -0.0000   -0.0000   -0.0113   -0.0205   -0.0000   -0.0000    0.0327    0.0000
        4 N1     1s        -0.0000   -7.0566   -0.0000    0.0000   -0.9338   -1.6334    0.0000    0.0000  -10.6850   -0.0000
        5 N1     1s        -0.0000  -40.7403   -0.0000    0.0000  -20.3796    0.2037   -0.0000   -0.0000  -42.2404   -0.0000
        6 N1     2px       -0.4632    0.0000    0.2097   -0.0020    0.0000   -0.0000    0.0000    0.3262    0.0000   -0.0000
        7 N1     2px       -0.0163   -0.0000   -0.0621    0.0006   -0.0000    0.0000   -0.0000   -0.0123   -0.0000    0.0000
        8 N1     2px       -0.9181   -0.0000    0.3007   -0.0029   -0.0000   -0.0000   -0.0000   -1.2297   -0.0000   -0.0000
        9 N1     2px      -21.2549    0.0000   -2.0433    0.0197   -0.0000   -0.0000   -0.0012  -41.1215    0.0000    0.0000
       10 N1     2py        0.0000    0.0000   -0.0020   -0.2097   -0.0000   -0.0000    0.3262   -0.0000    0.0000   -0.0000
       11 N1     2py        0.0000    0.0000    0.0006    0.0621   -0.0000    0.0000   -0.0123    0.0000   -0.0000    0.0000
       12 N1     2py        0.0001   -0.0000   -0.0029   -0.3007    0.0000    0.0000   -1.2297    0.0000   -0.0000    0.0000
       13 N1     2py        0.0013    0.0000    0.0197    2.0433   -0.0000    0.0000  -41.1215    0.0012    0.0000    0.0000
       14 N1     2pz        0.0000   -0.0536   -0.0000   -0.0000    0.1298   -0.0302    0.0000    0.0000    0.0392   -0.0000
       15 N1     2pz        0.0000    0.2364    0.0000   -0.0000    0.0707    0.0475   -0.0000   -0.0000    0.3740    0.0000
       16 N1     2pz        0.0000    4.0336    0.0000   -0.0000   -0.6617   -0.5678   -0.0000    0.0000    6.5881    0.0000
       17 N1     2pz        0.0000   13.8186    0.0000   -0.0000  -28.8290   -6.1488    0.0000    0.0000   10.5658    0.0000
       18 N1     3d2-       0.0000    0.0000   -0.0000    0.0000    0.0000   -0.0000   -0.0000    0.0000   -0.0000   -0.0003
       19 N1     3d2-       0.0000   -0.0000   -0.0000    0.0000   -0.0000    0.0000    0.0000   -0.0000   -0.0000    0.0839
       20 N1     3d2-       0.0000    0.0000   -0.0000    0.0000   -0.0000   -0.0000    0.0000    0.0000    0.0000   -0.3747
       21 N1     3d1-       0.0000    0.0000    0.0001    0.0081    0.0000    0.0000   -0.0029    0.0000   -0.0000    0.0000
       22 N1     3d1-      -0.0000    0.0000    0.0002    0.0160   -0.0000   -0.0000    0.1541   -0.0000    0.0000   -0.0000
       23 N1     3d1-      -0.0000    0.0000   -0.0001   -0.0106    0.0000   -0.0000    0.2686   -0.0000    0.0000   -0.0000
       24 N1     3d0        0.0000    0.0006   -0.0000    0.0000   -0.0111   -0.0074   -0.0000    0.0000   -0.0033    0.0000
       25 N1     3d0       -0.0000   -0.1626    0.0000   -0.0000    0.0512   -0.0131    0.0000    0.0000   -0.3211   -0.0000
       26 N1     3d0       -0.0000   -0.9237   -0.0000    0.0000    0.0475    0.7229   -0.0000   -0.0000   -1.2381   -0.0000
       27 N1     3d1+      -0.0112    0.0000   -0.0081    0.0001   -0.0000   -0.0000   -0.0000   -0.0029   -0.0000    0.0000
       28 N1     3d1+       0.0441    0.0000   -0.0160    0.0002    0.0000    0.0000    0.0000    0.1541    0.0000   -0.0000
       29 N1     3d1+       0.2339    0.0000    0.0106   -0.0001    0.0000    0.0000    0.0000    0.2686    0.0000    0.0000
       30 N1     3d2+      -0.0000   -0.0000    0.0000   -0.0000    0.0000   -0.0000    0.0000    0.0000   -0.0000    0.0000
       31 N1     3d2+      -0.0000    0.0000   -0.0000   -0.0000   -0.0000    0.0000    0.0000   -0.0000    0.0000   -0.0000
       32 N1     3d2+       0.0000   -0.0000   -0.0000   -0.0000   -0.0000   -0.0000   -0.0000    0.0000   -0.0000    0.0000
       33 N1     4f3-      -0.0000   -0.0000    0.0000   -0.0000   -0.0000   -0.0000   -0.0000    0.0000    0.0000   -0.0000
       34 N1     4f3-       0.0000   -0.0000   -0.0000    0.0000    0.0000    0.0000    0.0000   -0.0000   -0.0000    0.0000
       35 N1     4f2-       0.0000   -0.0000   -0.0000   -0.0000    0.0000   -0.0000   -0.0000   -0.0000    0.0000   -0.0001
       36 N1     4f2-      -0.0000   -0.0000    0.0000   -0.0000   -0.0000   -0.0000   -0.0000   -0.0000   -0.0000   -0.0025
       37 N1     4f1-      -0.0000    0.0000   -0.0001   -0.0056   -0.0000   -0.0000   -0.0093    0.0000    0.0000   -0.0000
       38 N1     4f1-       0.0000   -0.0000    0.0000    0.0040   -0.0000    0.0000   -0.0724    0.0000   -0.0000    0.0000
       39 N1     4f0       -0.0000    0.0094   -0.0000    0.0000   -0.0035    0.0079   -0.0000   -0.0000    0.0230    0.0000
       40 N1     4f0        0.0000    0.0465    0.0000    0.0000   -0.0275   -0.0602   -0.0000    0.0000    0.0409    0.0000
       41 N1     4f1+       0.0011   -0.0000    0.0056   -0.0001   -0.0000   -0.0000   -0.0000   -0.0093    0.0000    0.0000
       42 N1     4f1+      -0.0359   -0.0000   -0.0040    0.0000    0.0000   -0.0000   -0.0000   -0.0724   -0.0000   -0.0000
       43 N1     4f2+      -0.0000   -0.0000   -0.0000   -0.0000   -0.0000   -0.0000   -0.0000    0.0000   -0.0000    0.0000
       44 N1     4f2+      -0.0000    0.0000    0.0000   -0.0000    0.0000    0.0000    0.0000    0.0000    0.0000    0.0000
       45 N1     4f3+       0.0000   -0.0000   -0.0000    0.0000    0.0000   -0.0000   -0.0000    0.0000    0.0000    0.0000
       46 N1     4f3+      -0.0000    0.0000    0.0000   -0.0000    0.0000    0.0000    0.0000   -0.0000    0.0000   -0.0000
       47 N2     1s        -0.0000    0.0043    0.0000    0.0000   -0.0096   -0.0235   -0.0000   -0.0000    0.0066    0.0000
       48 N2     1s        -0.0000    0.1123   -0.0000    0.0000    0.0497   -0.2516   -0.0000   -0.0000   -0.1536    0.0000
       49 N2     1s        -0.0000   -0.0109   -0.0000   -0.0000   -0.0113   -0.0205    0.0000    0.0000   -0.0327    0.0000
       50 N2     1s         0.0000    7.0566    0.0000   -0.0000   -0.9338   -1.6334   -0.0000   -0.0000   10.6850    0.0000
       51 N2     1s         0.0000   40.7403    0.0000   -0.0000  -20.3796    0.2037    0.0000    0.0000   42.2404    0.0000
       52 N2     2px        0.4632   -0.0000    0.2097   -0.0020    0.0000    0.0000   -0.0000   -0.3262   -0.0000   -0.0000
       53 N2     2px        0.0163    0.0000   -0.0621    0.0006    0.0000   -0.0000    0.0000    0.0123    0.0000    0.0000
       54 N2     2px        0.9181    0.0000    0.3007   -0.0029    0.0000    0.0000    0.0000    1.2297    0.0000    0.0000
       55 N2     2px       21.2549   -0.0000   -2.0433    0.0197    0.0000    0.0000    0.0012   41.1215   -0.0000   -0.0000
       56 N2     2py       -0.0000   -0.0000   -0.0020   -0.2097    0.0000    0.0000   -0.3262    0.0000   -0.0000    0.0000
       57 N2     2py       -0.0000    0.0000    0.0006    0.0621   -0.0000   -0.0000    0.0123   -0.0000    0.0000   -0.0000
       58 N2     2py       -0.0001    0.0000   -0.0029   -0.3007    0.0000   -0.0000    1.2297   -0.0000    0.0000   -0.0000
       59 N2     2py       -0.0013   -0.0000    0.0197    2.0433    0.0000   -0.0000   41.1215   -0.0012   -0.0000   -0.0000
       60 N2     2pz       -0.0000   -0.0536   -0.0000    0.0000   -0.1298    0.0302    0.0000    0.0000    0.0392    0.0000
       61 N2     2pz        0.0000    0.2364    0.0000   -0.0000   -0.0707   -0.0475   -0.0000   -0.0000    0.3740   -0.0000
       62 N2     2pz        0.0000    4.0336    0.0000   -0.0000    0.6617    0.5678   -0.0000    0.0000    6.5881    0.0000
       63 N2     2pz        0.0000   13.8186   -0.0000    0.0000   28.8290    6.1488   -0.0000    0.0000   10.5658    0.0000
       64 N2     3d2-       0.0000   -0.0000    0.0000   -0.0000   -0.0000    0.0000   -0.0000    0.0000    0.0000   -0.0003
       65 N2     3d2-      -0.0000    0.0000    0.0000    0.0000    0.0000    0.0000    0.0000   -0.0000   -0.0000    0.0839
       66 N2     3d2-      -0.0000   -0.0000   -0.0000   -0.0000    0.0000   -0.0000   -0.0000   -0.0000    0.0000   -0.3747
       67 N2     3d1-       0.0000   -0.0000   -0.0001   -0.0081    0.0000    0.0000   -0.0029    0.0000   -0.0000   -0.0000
       68 N2     3d1-      -0.0000    0.0000   -0.0002   -0.0160    0.0000   -0.0000    0.1541   -0.0000    0.0000    0.0000
       69 N2     3d1-      -0.0000    0.0000    0.0001    0.0106   -0.0000   -0.0000    0.2686   -0.0000    0.0000   -0.0000
       70 N2     3d0        0.0000   -0.0006   -0.0000    0.0000   -0.0111   -0.0074   -0.0000   -0.0000    0.0033    0.0000
       71 N2     3d0        0.0000    0.1626    0.0000   -0.0000    0.0512   -0.0131   -0.0000   -0.0000    0.3211    0.0000
       72 N2     3d0        0.0000    0.9237    0.0000   -0.0000    0.0475    0.7229   -0.0000    0.0000    1.2381    0.0000
       73 N2     3d1+      -0.0112   -0.0000    0.0081   -0.0001   -0.0000    0.0000   -0.0000   -0.0029   -0.0000   -0.0000
       74 N2     3d1+       0.0441    0.0000    0.0160   -0.0002    0.0000    0.0000    0.0000    0.1541    0.0000   -0.0000
       75 N2     3d1+       0.2339    0.0000   -0.0106    0.0001   -0.0000    0.0000    0.0000    0.2686    0.0000    0.0000
       76 N2     3d2+      -0.0000   -0.0000    0.0000   -0.0000   -0.0000   -0.0000    0.0000   -0.0000   -0.0000    0.0000
       77 N2     3d2+      -0.0000    0.0000   -0.0000    0.0000    0.0000    0.0000   -0.0000    0.0000    0.0000   -0.0000
       78 N2     3d2+       0.0000   -0.0000    0.0000   -0.0000   -0.0000   -0.0000    0.0000   -0.0000   -0.0000    0.0000
       79 N2     4f3-      -0.0000   -0.0000   -0.0000   -0.0000    0.0000   -0.0000    0.0000   -0.0000    0.0000    0.0000
       80 N2     4f3-       0.0000    0.0000    0.0000    0.0000   -0.0000    0.0000   -0.0000   -0.0000   -0.0000   -0.0000
       81 N2     4f2-       0.0000   -0.0000    0.0000   -0.0000    0.0000   -0.0000   -0.0000   -0.0000    0.0000    0.0001
       82 N2     4f2-      -0.0000   -0.0000    0.0000   -0.0000   -0.0000    0.0000   -0.0000   -0.0000   -0.0000    0.0025
       83 N2     4f1-       0.0000   -0.0000   -0.0001   -0.0056    0.0000   -0.0000    0.0093   -0.0000   -0.0000   -0.0000
       84 N2     4f1-      -0.0000    0.0000    0.0000    0.0040   -0.0000   -0.0000    0.0724   -0.0000    0.0000   -0.0000
       85 N2     4f0        0.0000    0.0094    0.0000   -0.0000    0.0035   -0.0079   -0.0000   -0.0000    0.0230   -0.0000
       86 N2     4f0        0.0000    0.0465    0.0000   -0.0000    0.0275    0.0602   -0.0000    0.0000    0.0409   -0.0000
       87 N2     4f1+      -0.0011   -0.0000    0.0056   -0.0001    0.0000   -0.0000    0.0000    0.0093   -0.0000   -0.0000
       88 N2     4f1+       0.0359    0.0000   -0.0040    0.0000    0.0000    0.0000    0.0000    0.0724    0.0000   -0.0000
       89 N2     4f2+       0.0000    0.0000   -0.0000    0.0000   -0.0000   -0.0000    0.0000   -0.0000    0.0000   -0.0000
       90 N2     4f2+      -0.0000    0.0000    0.0000    0.0000    0.0000    0.0000   -0.0000    0.0000    0.0000   -0.0000
       91 N2     4f3+      -0.0000    0.0000   -0.0000   -0.0000    0.0000    0.0000    0.0000   -0.0000    0.0000    0.0000
       92 N2     4f3+       0.0000   -0.0000    0.0000    0.0000   -0.0000   -0.0000   -0.0000    0.0000   -0.0000    0.0000
       93 X1     1s         0.0000    0.0000   -0.0000    0.0000   35.2232   -2.8673   -0.0000    0.0000   -0.0000    0.0000
       94 X1     1s        -0.0000   -0.0000    0.0000   -0.0000   -9.1631    3.8226    0.0000   -0.0000    0.0000   -0.0000
       95 X1     1s         0.0000    0.0000   -0.0000    0.0000    1.8866   -1.1480   -0.0000    0.0000   -0.0000    0.0000
       96 X1     2px        0.0000   -0.0000    5.2563   -0.0506    0.0000    0.0000    0.0000   -0.0000    0.0000    0.0000
       97 X1     2px       -0.0000    0.0000   -3.2094    0.0309   -0.0000   -0.0000   -0.0000    0.0000   -0.0000   -0.0000
       98 X1     2px        0.0000   -0.0000    0.9611   -0.0093   -0.0000    0.0000    0.0000   -0.0000   -0.0000   -0.0000
       99 X1     2py       -0.0000   -0.0000   -0.0506   -5.2563    0.0000    0.0000   -0.0000    0.0000    0.0000    0.0000
      100 X1     2py        0.0000    0.0000    0.0309    3.2094   -0.0000   -0.0000    0.0000   -0.0000   -0.0000   -0.0000
      101 X1     2py       -0.0000   -0.0000   -0.0093   -0.9611   -0.0000    0.0000   -0.0000    0.0000    0.0000   -0.0000
      102 X1     2pz       -0.0000   -9.9215   -0.0000    0.0000    0.0000   -0.0000    0.0000   -0.0000   -2.1277   -0.0000
      103 X1     2pz        0.0000    3.8915    0.0000    0.0000   -0.0000    0.0000   -0.0000   -0.0000   -0.3416   -0.0000
      104 X1     2pz       -0.0000   -0.9353   -0.0000   -0.0000    0.0000   -0.0000    0.0000   -0.0000    0.2457    0.0000
      105 X1     3d2-       0.0000    0.0000    0.0000   -0.0000   -0.0000    0.0000    0.0000   -0.0000   -0.0000    2.9659
      106 X1     3d2-       0.0000   -0.0000   -0.0000    0.0000    0.0000   -0.0000   -0.0000    0.0000    0.0000   -2.7370
      107 X1     3d2-      -0.0000    0.0000    0.0000   -0.0000   -0.0000    0.0000    0.0000   -0.0000   -0.0000    0.9872
      108 X1     3d1-      -0.0001   -0.0000   -0.0000   -0.0000    0.0000   -0.0000    5.5849   -0.0002   -0.0000    0.0000
      109 X1     3d1-      -0.0006   -0.0000   -0.0000   -0.0000    0.0000   -0.0000   14.6477   -0.0004   -0.0000   -0.0000
      110 X1     3d1-       0.0001    0.0000    0.0000    0.0000    0.0000    0.0000   -1.8052    0.0001    0.0000    0.0000
      111 X1     3d0        0.0000    0.0000   -0.0000    0.0000    5.0615   -0.8178   -0.0000   -0.0000   -0.0000    0.0000
      112 X1     3d0        0.0000    0.0000   -0.0000    0.0000   12.5025    4.0914   -0.0000    0.0000   -0.0000   -0.0000
      113 X1     3d0        0.0000   -0.0000    0.0000   -0.0000   -1.4604   -0.8862    0.0000   -0.0000   -0.0000    0.0000
      114 X1     3d1+       2.0533   -0.0000    0.0000   -0.0000    0.0000   -0.0000    0.0002    5.5849   -0.0000   -0.0000
      115 X1     3d1+       9.4980   -0.0000    0.0000   -0.0000    0.0000    0.0000    0.0004   14.6477   -0.0000    0.0000
      116 X1     3d1+      -1.7836    0.0000   -0.0000    0.0000    0.0000    0.0000   -0.0001   -1.8052    0.0000   -0.0000
      117 X1     3d2+      -0.0000    0.0000    0.0000    0.0000    0.0000    0.0000   -0.0000   -0.0000    0.0000   -0.0000
      118 X1     3d2+       0.0000   -0.0000   -0.0000   -0.0000   -0.0000   -0.0000   -0.0000    0.0000   -0.0000    0.0000
      119 X1     3d2+       0.0000    0.0000    0.0000    0.0000    0.0000    0.0000    0.0000   -0.0000    0.0000   -0.0000

          Orbital           41    
          Energy            0.3536
          Occ. No.          0.0000

        1 N1     1s        -0.0000
        2 N1     1s        -0.0000
        3 N1     1s        -0.0000
        4 N1     1s         0.0000
        5 N1     1s         0.0000
        6 N1     2px       -0.0000
        7 N1     2px        0.0000
        8 N1     2px        0.0000
        9 N1     2px       -0.0000
       10 N1     2py        0.0000
       11 N1     2py       -0.0000
       12 N1     2py       -0.0000
       13 N1     2py       -0.0000
       14 N1     2pz       -0.0000
       15 N1     2pz       -0.0000
       16 N1     2pz       -0.0000
       17 N1     2pz        0.0000
       18 N1     3d2-      -0.0000
       19 N1     3d2-       0.0000
       20 N1     3d2-      -0.0000
       21 N1     3d1-      -0.0000
       22 N1     3d1-       0.0000
       23 N1     3d1-      -0.0000
[...]
AIVX     1  Mu1.0005  In1.005 Se1.023               0.88798119     -0.04778644      0.05526241     -0.00264079
AIVX     1  Mu1.0001  In1.004 Se1.024               0.23643112     -0.00000000      0.00000000     -0.00000000
AIVX     1  Mu1.0001  In1.005 Se1.024               0.09632719     -0.00000000     -0.00000002      0.00000000
AIVX     1  Mu1.0001  In1.004 Se1.025               0.23679606     -0.00000000      0.00000000     -0.00000000
AIVX     1  Mu1.0001  In1.005 Se1.025               0.09669214     -0.00019941      0.00213276     -0.00000043
AIVX     1  Mu1.0001  In1.004 Se1.026               0.23679606     -0.00000000      0.00000000     -0.00000000
AIVX     1  Mu1.0001  In1.005 Se1.026               0.09669214     -0.00254210      0.02722639     -0.00006921
AIVX     1  Mu1.0001  In1.004 Se1.027               0.27479111      0.00000000      0.00000003      0.00000000
AIVX     1  Mu1.0005  In1.004 Se1.027               1.10264889      0.04328103     -0.03845876     -0.00166453
AIVX     1  Mu1.0001  In1.005 Se1.027               0.13468718      0.00000000      0.00000000      0.00000000
AIVX     1  Mu1.0001  In1.005 Se1.028               0.17034187     -0.00000000      0.00000000     -0.00000000
AIVX     1  Mu1.0001  In1.005 Se1.029               0.17034187     -0.00000000     -0.00000000      0.00000000
AIVX     1  Mu1.0001  In1.004 Se1.030               0.28748483      0.00000000     -0.00000000     -0.00000000
AIVX     1  Mu1.0001  In1.005 Se1.030               0.14738090      0.00000000      0.00000007      0.00000000
AIVX     1  Mu1.0005  In1.005 Se1.030               0.97523868      0.03598828     -0.03859025     -0.00138880
AIVX     1  Mu1.0001  In1.005 Se1.031               0.17476311     -0.00000000     -0.00000002      0.00000000
AIVX     1  Mu1.0001  In1.005 Se1.032               0.17308268     -0.00502619      0.02900504     -0.00014578
AIVX     1  Mu1.0001  In1.005 Se1.033               0.17308268     -0.00068969      0.00398324     -0.00000275
AIVX     1  Mu1.0005  In1.004 Se1.034               1.19114910     -0.04516216      0.03691660     -0.00166723
AIVX     1  Mu1.0001  In1.005 Se1.034               0.22318739     -0.00000000      0.00000000     -0.00000000
AIVX     1  Mu1.0001  In1.005 Se1.035               0.23810976     -0.00000000     -0.00000001      0.00000000
AIVX     1  Mu1.0001  In1.005 Se1.036               0.23810976      0.00000000      0.00000005      0.00000000
AIVX     1  Mu1.0005  In1.004 Se1.039               1.29230159      0.06575277     -0.04964648     -0.00326439
AIVX     1  Mu1.0005  In1.005 Se1.044               1.33667199      0.09330233     -0.06924210     -0.00646045
AIVX     1  Mu1.0037  In1.005 Se1.047               2.03572325      0.07146132     -0.03502944     -0.00250325
AIVX     1  Mu1.0005  In1.003 Se1.050               2.33231059      0.06465735     -0.02703098     -0.00174775
AIVX     1  Mu1.0037  In1.004 Se1.050               2.24893207      0.05574424     -0.02539997     -0.00141590
AIVX     1  Mu1.0005  In1.004 Se1.055               1.69499561      0.07655990     -0.04329618     -0.00331475
AIVX     1  Mu1.0037  In1.005 Se1.058               2.43122330      0.13102674     -0.05334642     -0.00698981
AIVX     1  Mu1.0005  In1.005 Se1.059               1.90669855     -0.08934507      0.04494462     -0.00401558
VJAIP    1  Mu1.0004  Se1.065 In1.005 In1.004       3.05224729     -0.07669215      0.02508810     -0.00192406
VJAIP    1  Mu1.0003  Se1.066 In1.005 In1.004       3.05224729     -0.07669215      0.02508810     -0.00192406
--

   (Skipping property calculation,
    use PROP keyword to activate)
--


  Total CASPT2 energies:
::    CASPT2 Root  1     Total energy:   -109.35809232
::    CASPT2 Root  2     Total energy:   -108.99854503
::    CASPT2 Root  3     Total energy:   -108.97742300
::    CASPT2 Root  4     Total energy:   -108.97802979
::    CASPT2 Root  5     Total energy:   -108.78174914
::    CASPT2 Root  6     Total energy:   -108.78174888
::    CASPT2 Root  7     Total energy:   -108.77325800
::    CASPT2 Root  8     Total energy:   -108.77325878
::    CASPT2 Root  9     Total energy:   -108.80076155
::    CASPT2 Root 10     Total energy:   -108.79980082

  Note that these CASPT2 energies are obtained using
  the XMS Fock operator and thus do not correspond
  to the true single-state CASPT2 ones.

++ Multi-State CASPT2 section:
********************************************************************************
  MULTI-STATE CASPT2 SECTION
--------------------------------------------------------------------------------

  Output diagonal energies have been shifted. Add   -109.00000000000000     

  Effective Hamiltonian matrix (Symmetric):

                1               2               3               4               5
   1        -0.35809232
   2         0.00000000      0.00145497
   3        -0.00000000     -0.00000004      0.02257700
   4        -0.00000000      0.00000005      0.00000288      0.02197021
   5        -0.00000001      0.00000000     -0.00000000     -0.00000000      0.21825086
   6         0.00000001      0.00000000     -0.00000000      0.00000000     -0.00000010
   7         0.00000000     -0.00000006      0.00000000      0.00000000     -0.00000000
   8         0.00000000      0.00000006     -0.00000001      0.00000000     -0.00000000
   9        -0.00000000     -0.00000000      0.00000000      0.00000000     -0.00000006
  10         0.00000000      0.00000000      0.00000000      0.00000000     -0.00000011

                6               7               8               9              10
   6         0.21825112
   7        -0.00000000      0.22674200
   8        -0.00000000      0.00000005      0.22674122
   9         0.00000014     -0.00000000      0.00000000      0.19923845
  10        -0.00000004      0.00000000      0.00000000      0.00004200      0.20019918

       Total XMS-CASPT2 energies:
::    XMS-CASPT2 Root  1     Total energy:   -109.35809232
::    XMS-CASPT2 Root  2     Total energy:   -108.99854503
::    XMS-CASPT2 Root  3     Total energy:   -108.97802980
::    XMS-CASPT2 Root  4     Total energy:   -108.97742299
::    XMS-CASPT2 Root  5     Total energy:   -108.80076338
::    XMS-CASPT2 Root  6     Total energy:   -108.79979898
::    XMS-CASPT2 Root  7     Total energy:   -108.78174917
::    XMS-CASPT2 Root  8     Total energy:   -108.78174885
::    XMS-CASPT2 Root  9     Total energy:   -108.77325878
::    XMS-CASPT2 Root 10     Total energy:   -108.77325800

       Eigenvectors:
            1.00000000      0.00000000     -0.00000000     -0.00000000     -0.00000000
           -0.00000000      1.00000000      0.00000241     -0.00000172     -0.00000000
            0.00000000      0.00000173     -0.00474463      0.99998874      0.00000000
            0.00000000     -0.00000240      0.99998874      0.00474463      0.00000000
            0.00000002     -0.00000000      0.00000000      0.00000000      0.00000299
           -0.00000002     -0.00000000     -0.00000000      0.00000000     -0.00000747
           -0.00000000      0.00000025     -0.00000002     -0.00000000      0.00000006
           -0.00000000     -0.00000027     -0.00000001      0.00000003     -0.00000002
            0.00000000      0.00000000     -0.00000000     -0.00000000      0.99904932
           -0.00000000     -0.00000000     -0.00000000     -0.00000000     -0.04359432

            0.00000000     -0.00000001      0.00000002     -0.00000000      0.00000000
            0.00000000      0.00000000      0.00000000      0.00000028     -0.00000024
            0.00000000     -0.00000000     -0.00000000     -0.00000003      0.00000000
            0.00000000      0.00000000      0.00000000      0.00000001      0.00000002
            0.00000651      0.94166894     -0.33654065     -0.00000007     -0.00000001
            0.00000175      0.33654065      0.94166894     -0.00000025     -0.00000002
           -0.00000004      0.00000001      0.00000000     -0.05860934      0.99828100
           -0.00000001      0.00000015      0.00000022      0.99828100      0.05860934
            0.04359432     -0.00000060      0.00000806      0.00000003     -0.00000006
            0.99904932     -0.00000670      0.00000019      0.00000000      0.00000004

       In terms of the input states:
            1.00000000      0.00000000     -0.00000000     -0.00000000     -0.00000000
           -0.00000000      1.00000000      0.00000241     -0.00000172     -0.00000000
            0.00000000      0.00000018      0.53110497      0.84730603      0.00000000
            0.00000000     -0.00000295      0.84730603     -0.53110497     -0.00000000
            0.00000001     -0.00000000      0.00000000      0.00000000      0.00000100
           -0.00000002     -0.00000000     -0.00000000      0.00000000     -0.00000799
           -0.00000000      0.00000032     -0.00000003     -0.00000002      0.00000006
           -0.00000000     -0.00000022     -0.00000002      0.00000004     -0.00000001
            0.00000000      0.00000000     -0.00000000     -0.00000000      0.98620043
           -0.00000000     -0.00000000     -0.00000000     -0.00000000     -0.16555578

            0.00000000     -0.00000001      0.00000002     -0.00000000      0.00000000
            0.00000000      0.00000000      0.00000000      0.00000030     -0.00000025
            0.00000000     -0.00000000     -0.00000000     -0.00000003      0.00000002
            0.00000000      0.00000000      0.00000000      0.00000003      0.00000003
            0.00000674      0.99624543     -0.08657397     -0.00000013     -0.00000001
            0.00000004      0.08657397      0.99624543     -0.00000023     -0.00000002
           -0.00000003     -0.00000003     -0.00000004     -0.26874693      0.96321082
           -0.00000002      0.00000015      0.00000021      0.96321082      0.26874693
            0.16555578     -0.00000141      0.00000802      0.00000003     -0.00000005
            0.98620043     -0.00000658     -0.00000079      0.00000000      0.00000005

--

  THE ORIGINAL CI ARRAYS ARE NOW MIXED AS LINEAR
  COMBINATIONS, GIVEN BY THE EIGENVECTORS.
  A NEW JOBIPH FILE NAMED 'JOBMIX' IS PREPARED.
********************************************************************************

++ Mixed CI coefficients:
  The CI coefficients for the MIXED state nr.   1
--------------------------------------------------------------------------------
 CI COEFFICIENTS LARGER THAN  0.50D-01
  Occupation of active orbitals, and spin coupling
  of open shells. (u,d: Spin up or down).
  SGUGA info is (Midvert:IsyUp:UpperWalk/LowerWalk)
        Conf  SGUGA info        Occupation     Coefficient         Weight
           1  ( 1:1:   1/   1)   2200000000       0.968306       0.937616
           4  ( 1:1:   1/   4)   2020000000      -0.078757       0.006203
           5  ( 1:1:   1/   5)   ud20000000      -0.082065       0.006735
           6  ( 1:1:   1/   6)   0220000000      -0.074570       0.005561
           9  ( 1:1:   1/   9)   20ud000000      -0.082065       0.006735
          11  ( 1:1:   1/  11)   02ud000000       0.082065       0.006735
          12  ( 1:1:   1/  12)   uudd000000       0.099502       0.009901
          15  ( 1:1:   1/  15)   2002000000      -0.074570       0.005561
          16  ( 1:1:   1/  16)   ud02000000       0.082065       0.006735
          17  ( 1:1:   1/  17)   0202000000      -0.078757       0.006203

  The CI coefficients for the MIXED state nr.   2
--------------------------------------------------------------------------------
 CI COEFFICIENTS LARGER THAN  0.50D-01
  Occupation of active orbitals, and spin coupling
  of open shells. (u,d: Spin up or down).
  SGUGA info is (Midvert:IsyUp:UpperWalk/LowerWalk)
        Conf  SGUGA info        Occupation     Coefficient         Weight
           2  ( 1:1:   1/   2)   2ud0000000      -0.487063       0.237231
           3  ( 1:1:   1/   3)   u2d0000000       0.504952       0.254977
           7  ( 1:1:   1/   7)   2u0d000000       0.504955       0.254980
           8  ( 1:1:   1/   8)   u20d000000       0.487066       0.237233
          13  ( 1:1:   1/  13)   u02d000000      -0.060571       0.003669
          14  ( 1:1:   1/  14)   0u2d000000       0.062795       0.003943
          18  ( 1:1:   1/  18)   u0d2000000       0.062796       0.003943
          19  ( 1:1:   1/  19)   0ud2000000       0.060571       0.003669

  The CI coefficients for the MIXED state nr.   3
--------------------------------------------------------------------------------
 CI COEFFICIENTS LARGER THAN  0.50D-01
  Occupation of active orbitals, and spin coupling
  of open shells. (u,d: Spin up or down).
  SGUGA info is (Midvert:IsyUp:UpperWalk/LowerWalk)
        Conf  SGUGA info        Occupation     Coefficient         Weight
           2  ( 1:1:   1/   2)   2ud0000000      -0.687470       0.472615
           3  ( 1:1:   1/   3)   u2d0000000       0.152140       0.023147
           7  ( 1:1:   1/   7)   2u0d000000      -0.152137       0.023146
           8  ( 1:1:   1/   8)   u20d000000      -0.687468       0.472612
          13  ( 1:1:   1/  13)   u02d000000      -0.062311       0.003883
          19  ( 1:1:   1/  19)   0ud2000000      -0.062311       0.003883

  The CI coefficients for the MIXED state nr.   4
--------------------------------------------------------------------------------
 CI COEFFICIENTS LARGER THAN  0.50D-01
  Occupation of active orbitals, and spin coupling
  of open shells. (u,d: Spin up or down).
  SGUGA info is (Midvert:IsyUp:UpperWalk/LowerWalk)
        Conf  SGUGA info        Occupation     Coefficient         Weight
           2  ( 1:1:   1/   2)   2ud0000000      -0.152138       0.023146
           3  ( 1:1:   1/   3)   u2d0000000      -0.687470       0.472615
           7  ( 1:1:   1/   7)   2u0d000000       0.687468       0.472612
           8  ( 1:1:   1/   8)   u20d000000      -0.152139       0.023146
          14  ( 1:1:   1/  14)   0u2d000000      -0.062311       0.003883
          18  ( 1:1:   1/  18)   u0d2000000       0.062311       0.003883

  The CI coefficients for the MIXED state nr.   5
--------------------------------------------------------------------------------
 CI COEFFICIENTS LARGER THAN  0.50D-01
  Occupation of active orbitals, and spin coupling
  of open shells. (u,d: Spin up or down).
  SGUGA info is (Midvert:IsyUp:UpperWalk/LowerWalk)
        Conf  SGUGA info        Occupation     Coefficient         Weight
          52  ( 2:1:   2/   1)   2u0000d000      -0.080412       0.006466
          53  ( 2:1:   3/   1)   2u00000d00      -0.687941       0.473262
          57  ( 2:1:   2/   2)   u20000d000       0.687941       0.473262
          58  ( 2:1:   3/   2)   u200000d00      -0.080413       0.006466
          82  ( 2:1:   2/   7)   u02000d000      -0.062213       0.003870
         108  ( 2:1:   3/  12)   u0du000d00      -0.055632       0.003095
         112  ( 2:1:   2/  13)   0udu00d000       0.064933       0.004216
         133  ( 2:1:   3/  17)   0uud000d00       0.056883       0.003236
         143  ( 2:1:   3/  19)   0u02000d00      -0.062213       0.003870

  The CI coefficients for the MIXED state nr.   6
--------------------------------------------------------------------------------
 CI COEFFICIENTS LARGER THAN  0.50D-01
  Occupation of active orbitals, and spin coupling
  of open shells. (u,d: Spin up or down).
  SGUGA info is (Midvert:IsyUp:UpperWalk/LowerWalk)
        Conf  SGUGA info        Occupation     Coefficient         Weight
          52  ( 2:1:   2/   1)   2u0000d000      -0.687941       0.473262
          53  ( 2:1:   3/   1)   2u00000d00       0.080413       0.006466
          57  ( 2:1:   2/   2)   u20000d000      -0.080413       0.006466
          58  ( 2:1:   3/   2)   u200000d00      -0.687941       0.473262
          83  ( 2:1:   3/   7)   u020000d00       0.062101       0.003857
         107  ( 2:1:   2/  12)   u0du00d000      -0.055553       0.003086
         113  ( 2:1:   3/  13)   0udu000d00      -0.065012       0.004227
         132  ( 2:1:   2/  17)   0uud00d000       0.057020       0.003251
         142  ( 2:1:   2/  19)   0u0200d000      -0.062101       0.003857

  The CI coefficients for the MIXED state nr.   7
--------------------------------------------------------------------------------
 CI COEFFICIENTS LARGER THAN  0.50D-01
  Occupation of active orbitals, and spin coupling
  of open shells. (u,d: Spin up or down).
  SGUGA info is (Midvert:IsyUp:UpperWalk/LowerWalk)
        Conf  SGUGA info        Occupation     Coefficient         Weight
          51  ( 2:1:   1/   1)   2u000d0000      -0.427361       0.182637
          56  ( 2:1:   1/   2)   u2000d0000      -0.881421       0.776904
         111  ( 2:1:   1/  13)   0udu0d0000      -0.059637       0.003557
         126  ( 2:1:   1/  16)   u0ud0d0000       0.090861       0.008256
         131  ( 2:1:   1/  17)   0uud0d0000       0.075145       0.005647
         136  ( 2:1:   1/  18)   u0020d0000       0.096360       0.009285
         141  ( 2:1:   1/  19)   0u020d0000      -0.091160       0.008310

  The CI coefficients for the MIXED state nr.   8
--------------------------------------------------------------------------------
 CI COEFFICIENTS LARGER THAN  0.50D-01
  Occupation of active orbitals, and spin coupling
  of open shells. (u,d: Spin up or down).
  SGUGA info is (Midvert:IsyUp:UpperWalk/LowerWalk)
        Conf  SGUGA info        Occupation     Coefficient         Weight
          51  ( 2:1:   1/   1)   2u000d0000       0.881421       0.776904
          56  ( 2:1:   1/   2)   u2000d0000      -0.427361       0.182637
          81  ( 2:1:   1/   7)   u0200d0000       0.091160       0.008310
          86  ( 2:1:   1/   8)   0u200d0000       0.096360       0.009285
         106  ( 2:1:   1/  12)   u0du0d0000       0.094896       0.009005
         111  ( 2:1:   1/  13)   0udu0d0000      -0.077434       0.005996

  The CI coefficients for the MIXED state nr.   9
--------------------------------------------------------------------------------
 CI COEFFICIENTS LARGER THAN  0.50D-01
  Occupation of active orbitals, and spin coupling
  of open shells. (u,d: Spin up or down).
  SGUGA info is (Midvert:IsyUp:UpperWalk/LowerWalk)
        Conf  SGUGA info        Occupation     Coefficient         Weight
          21  ( 1:1:   1/  21)   2u00d00000       0.643539       0.414142
          22  ( 1:1:   1/  22)   u200d00000      -0.738917       0.545998
          27  ( 1:1:   1/  27)   u020d00000       0.102089       0.010422
          28  ( 1:1:   1/  28)   0u20d00000       0.097229       0.009454
          32  ( 1:1:   1/  32)   u0dud00000       0.088292       0.007795
          33  ( 1:1:   1/  33)   0udud00000      -0.094624       0.008954

  The CI coefficients for the MIXED state nr.  10
--------------------------------------------------------------------------------
 CI COEFFICIENTS LARGER THAN  0.50D-01
  Occupation of active orbitals, and spin coupling
  of open shells. (u,d: Spin up or down).
  SGUGA info is (Midvert:IsyUp:UpperWalk/LowerWalk)
        Conf  SGUGA info        Occupation     Coefficient         Weight
          21  ( 1:1:   1/  21)   2u00d00000       0.738917       0.545998
          22  ( 1:1:   1/  22)   u200d00000       0.643539       0.414142
          36  ( 1:1:   1/  36)   u0udd00000      -0.089111       0.007941
          37  ( 1:1:   1/  37)   0uudd00000      -0.087796       0.007708
          38  ( 1:1:   1/  38)   u002d00000      -0.097229       0.009454
          39  ( 1:1:   1/  39)   0u02d00000       0.102089       0.010422

--

--- Stop Module: caspt2 at Mon Aug 10 20:39:11 2020 /rc=_RC_ALL_IS_WELL_ ---
*** files: xmldump
    saved to directory /home/gayverjr/OpenCAP/molcas_example
--- Module caspt2 spent 3 minutes 25 seconds ---

.##################.
.# Happy landing! #.
.##################.

    Timing: Wall=598.26 User=4932.30 System=199.14
