******************************************************
*** WorkDir and CurrDir are the same, not cleaned! ***
******************************************************
   This run of MOLCAS is using the pymolcas driver

                             OPE
                             OPE          NMOL  CASOP  ENMOLC A   SO
                 OPE        NMOLC        AS  OP EN  MO LC     AS  OP
                OPENM       OL CA        SO  PE NM  OL CA     SOP EN
                OP EN      MO   LC       AS  OP ENMOL  CASO   PENMOL
                OP  EN     MO   LC       AS  OP EN     MO     LC ASO
               OP   E  NMOL  C  AS       OP  EN MO     LC     AS  OP
               OP  E   NMO   LC AS        OPEN  MO     LCASOP EN   M
               O  PEN   MO  LCA  SO
            OPE   NMO   L   CAS    OP
        OPENMOL  CASOP     ENMOL   CASOPE
     OPENMOLCA   SOPENMOLCASOPEN   MOLCASOPE
    OPENMOLCAS   OP           EN   MOL    CAS
    OPENMOLCAS       OP  ENM        O     LCA
    OPENMOLCAS    OPEN  MOLCASO     P  E  NMO
    OPENMOLCAS     OP               E  N  MOL
    OPENMOLCA   SO           PENM   O  L  CAS    OPEN    MO    LCAS
    OPENMOLCA   SOP           ENM   O  L  CAS   OP  EN  MOLC  AS   O
    OPENMOLCA   SOPE           NM      O  LCA   S      OP  EN MO
    OPENMOLC                AS         O  PEN   M      OL  CA  SOPE
    OPENMO        LCASOPE  NMOL        C  ASO   P      ENMOLC     AS
    OPE     NMO      LCA  SO     P     E   NM   OL  CA SO  PE N   MO
          OPENMOLCA            SOPE   NMO        LCAS  O    P  ENMO
     OPENMOLCASOPENMOLCASOPENMOLCASOPENMOLCA
        OPENMOLCASOPENMOLCASOPENMOLCASOPE
            OPENMOLCASOPENMOLCASOPENM
               OPENMOLCASOPENMOLCA        version: 19.11
                   OPENMOLCASO
                       OPE                tag: 1162-ga18ab34

 OpenMolcas is free software; you can redistribute it and/or modify it
 under the terms of the GNU Lesser General Public License version 2.1.
 OpenMolcas is distributed in the hope that it will be useful, but it
 is provided "as is" and without any express or implied warranties.
 For more details see the full text of the license in the file
 LICENSE or in <http://www.gnu.org/licenses/>.

                 Copyright (C) The OpenMolcas Authors
           For the author list and the recommended citation,
                   consult the file CONTRIBUTORS.md

           *************************************************
           * pymolcas version py2.08                       *
           *   build bed633bbe89b7744c23cdbfc3f64969c      *
           *   (after the EMIL interpreter by V. Veryazov) *
           *************************************************

configuration info
------------------
C Compiler ID: GNU
C flags: -std=gnu99 -fopenmp
Fortran Compiler ID: GNU
Fortran flags: -fno-aggressive-loop-optimizations -cpp -fdefault-integer-8 -fopenmp
Definitions: _MOLCAS_;_I8_;_LINUX_;_MKL_;_DMRG_
Parallel: OFF (GA=OFF)


   ----------------------------------------------------------------------
  |
  |             Project: symm
  |      Submitted from: /scratch/gayverjr/symm.3991146678
  |        Scratch area: /scratch/gayverjr/symm.3991146678
  |     Save outputs to: /home/gayverjr/OpenCAP/molcas_example
  |              Molcas: /home/qcsoftware/OpenMolcas/qcmaquis_build/build
  |
  | Scratch area is NOT empty
  |
  |      MOLCAS_DRIVER = /home/qcsoftware/bin/pymolcas
  | MOLCAS_NEW_WORKDIR = YES
  |      MOLCAS_NPROCS = 16
  |      MOLCAS_SOURCE = /home/qcsoftware/OpenMolcas/Molcas_src
  |   MOLCAS_STRUCTURE = 0
  |
   ----------------------------------------------------------------------

++ ---------   Input file   ---------

&GATEWAY
Expert
Basis set
 N.aug-cc-pvtz
 N1  0.0  0.0  1.039
End of Basis
Basis set
X ..... / inline
   0.00   2
    3    3
               0.0288
               0.0144
               0.0072
      1.00000000             0.00000000             0.00000000
      0.00000000             1.00000000             0.00000000
      0.00000000             0.00000000             1.00000000
     3    3
               0.02455
               0.012275
               0.0061375
     1.00000000             0.00000000             0.00000000
     0.00000000             1.00000000             0.00000000
     0.00000000             0.00000000             1.00000000
     3    3
               0.0755
               0.03775
               0.018875
      1.000000E+00           0.000000E+00           0.000000E+00           0.00000000
      0.000000E+00           1.000000E+00           0.000000E+00           0.00000000
      0.000000E+00           0.000000E+00           1.000000E+00           0.00000000
X1  0.000  0.000  0.000
End of basis
Symmetry
x y z

&SEWARD

&SCF

&MBPT2
PRPT

>>> COPY /home/gayverjr/OpenCAP/molcas_example/$Project.MP2Orb INPORB

&RASSCF
LUMORB
Title = cas 5,13 test
Inactive = 3 0 0 0 2 0 0 0
Ras2= 0 1 1 0 0 1 1 0
NActEl=4,0,0
CIROOT= 8 8 1

>>> COPY /home/gayverjr/OpenCAP/molcas_example/$Project.RasOrb INPORB

&RASSCF
LUMORB
Inactive = 3 0 0 0 2 0 0 0
Ras2= 0 1 1 0 0 4 4 0
TDM
Symmetry = 6
Charge = -1
CIROOT= 10 10 1
SPIN=2

&CASPT2
MAXIter = 50
MULtistate = all

&RASSI
TRD1

>>> COPY /home/gayverjr/OpenCAP/molcas_example/$Project.RasOrb INPORB

&RASSCF
LUMORB
Inactive = 3 0 0 0 2 0 0 0
Ras2= 0 1 1 0 0 4 4 0
CIROOT= 10 10 1
CIONLY
NActEl=4,0,0
Spin = 1
Charge = 0

&CASPT2
MAXIter = 50
MULtistate = all

-- ----------------------------------

--- Start Module: gateway at Thu Aug 20 06:08:38 2020 ---

()()()()()()()()()()()()()()()()()()()()()()()()()()()()()()()()()()()()()()()()()()()()()()()()()()

                                              &GATEWAY

                                   only a single process is used
                       available to each process: 20 GB of memory, 16 threads
                                             pid: 30004
()()()()()()()()()()()()()()()()()()()()()()()()()()()()()()()()()()()()()()()()()()()()()()()()()()

 ###############################################################################
 ###############################################################################
 ###                                                                         ###
 ###                                                                         ###
 ###    WARNING:  EXPERT option is ON!                                       ###
 ###                                                                         ###
 ###                                                                         ###
 ###############################################################################
 ###############################################################################

++    Symmetry information:
      ---------------------

                    --- Group Generators ---
                    Reflection in the yz-plane  
                    Reflection in the xz-plane  
                    Reflection in the xy-plane  

                    Character Table for D2h

                             E   s(yz) s(xz) C2(z) s(xy) C2(y) C2(x)   i  
                    ag       1     1     1     1     1     1     1     1  
                    b3u      1    -1     1    -1     1    -1     1    -1  x
                    b2u      1     1    -1    -1     1     1    -1    -1  y
                    b1g      1    -1    -1     1     1    -1    -1     1  xy, Rz
                    b1u      1     1     1     1    -1    -1    -1    -1  z
                    b2g      1    -1     1    -1    -1     1    -1     1  xz, Ry
                    b3g      1     1    -1    -1    -1    -1     1     1  yz, Rx
                    au       1    -1    -1     1    -1     1     1    -1  I
--


++    Basis set information:
      ----------------------


      Basis set label: N.AUG-CC-PVTZ.........

      Electronic valence basis set:
      ------------------
      Associated Effective Charge   7.000000 au
      Associated Actual Charge      7.000000 au
      Nuclear Model: Point charge

      Shell  nPrim  nBasis  Cartesian Spherical Contaminant
         s      11       5        X                  
         p       6       4        X                  
         d       3       3                 X         
         f       2       2                 X         


      Basis set label: X...............................................................................

      Electronic valence basis set:
      ------------------
      Associated Effective Charge   0.000000 au
      Associated Actual Charge      0.000000 au
      Nuclear Model: Point charge

      Shell  nPrim  nBasis  Cartesian Spherical Contaminant
         s       3       3        X                  
         p       3       3        X                  
         d       3       3                 X         
--


++    Molecular structure info:
      -------------------------

                    ************************************************ 
                    **** Cartesian Coordinates / Bohr, Angstrom **** 
                    ************************************************ 

     Center  Label                x              y              z                     x              y              z
        1      N1               0.000000       0.000000       1.039000              0.000000       0.000000       0.549815
        2      N1               0.000000       0.000000      -1.039000              0.000000       0.000000      -0.549815
        3      X1               0.000000       0.000000       0.000000              0.000000       0.000000       0.000000

                    *************************************** 
                    *    InterNuclear Distances / Bohr    * 
                    *************************************** 

               1 N1            2 N1            3 X1    
    1 N1       0.000000
    2 N1       2.078000        0.000000
    3 X1       1.039000        1.039000        0.000000

                    ******************************************* 
                    *    InterNuclear Distances / Angstrom    * 
                    ******************************************* 

               1 N1            2 N1            3 X1    
    1 N1       0.000000
    2 N1       1.099630        0.000000
    3 X1       0.549815        0.549815        0.000000

                    ************************************** 
                    *    Valence Bond Angles / Degree    * 
                    ************************************** 
                          Atom centers                 Phi
                      2 N1       1 N1       3 X1         0.00
                      1 N1       2 N1       3 X1         0.00
                      1 N1       3 X1       2 N1       180.00
--


            Nuclear Potential Energy             23.58036574 au

--- Stop Module: gateway at Thu Aug 20 06:08:40 2020 /rc=_RC_ALL_IS_WELL_ ---
*** files: xmldump
    saved to directory /home/gayverjr/OpenCAP/molcas_example
--- Module gateway spent 1 second ---

--- Start Module: seward at Thu Aug 20 06:08:40 2020 ---

()()()()()()()()()()()()()()()()()()()()()()()()()()()()()()()()()()()()()()()()()()()()()()()()()()

                                              &SEWARD

                                   only a single process is used
                       available to each process: 20 GB of memory, 16 threads
                                             pid: 30025
()()()()()()()()()()()()()()()()()()()()()()()()()()()()()()()()()()()()()()()()()()()()()()()()()()

               SEWARD will generate:
                  Multipole Moment integrals up to order  2
                  Kinetic Energy integrals
                  Nuclear Attraction integrals (point charge)
                  One-Electron Hamiltonian integrals
                  Velocity integrals
                  Orbital angular momentum around ( 0.0000  0.0000  0.0000 )
                  Velocity quadrupole around ( 0.0000  0.0000  0.0000 )
                  Two-Electron Repulsion integrals

                   Integrals are discarded if absolute value <: 0.10E-13
                   Integral cutoff threshold is set to       <: 0.10E-15

                    Unitary symmetry adaptation


            Nuclear Potential Energy             23.58036574 au


      Basis set specifications :
      Symmetry species         ag   b3u  b2u  b1g  b1u  b2g  b3g  au 
      Basis functions           28   14   14    8   22   14   14    5


  Input file to MOLDEN was generated!

--- Stop Module: seward at Thu Aug 20 06:08:43 2020 /rc=_RC_ALL_IS_WELL_ ---
*** files: symm.GssOrb symm.guessorb.h5 symm.guessorb.molden xmldump
    saved to directory /home/gayverjr/OpenCAP/molcas_example
--- Module seward spent 2 seconds ---

*** symbolic link created: INPORB -> symm.GssOrb
--- Start Module: scf at Thu Aug 20 06:08:43 2020 ---

()()()()()()()()()()()()()()()()()()()()()()()()()()()()()()()()()()()()()()()()()()()()()()()()()()

                                                &SCF

                                   only a single process is used
                       available to each process: 20 GB of memory, 16 threads
                                             pid: 30056
()()()()()()()()()()()()()()()()()()()()()()()()()()()()()()()()()()()()()()()()()()()()()()()()()()

++    Input section:
      --------------

      Header of the integral files:
      
       Integrals generated by seward 4.2.0  , Thu Aug 20 06:08:40 2020


      Cartesian coordinates in Angstrom:
      -----------------------------------------------------
      No.  Label        X            Y            Z        
      -----------------------------------------------------
       1   N1         0.00000000   0.00000000   0.54981512
       2   X1         0.00000000   0.00000000   0.00000000
       3   N1         0.00000000   0.00000000  -0.54981512
      -----------------------------------------------------
      Nuclear repulsion energy =   23.58036574
--

++    Orbital specifications:
      -----------------------

      Symmetry species               1   2   3   4   5   6   7   8
                                    ag b3u b2u b1g b1u b2g b3g  au
      Frozen orbitals                0   0   0   0   0   0   0   0
      Occupied orbitals              3   1   1   0   2   0   0   0
      Secondary orbitals            25  13  13   8  20  14  14   5
      Deleted orbitals               0   0   0   0   0   0   0   0
      Total number of orbitals      28  14  14   8  22  14  14   5
      Number of basis functions     28  14  14   8  22  14  14   5
--

      Molecular charge                           0.000

++    Optimization specifications:
      ----------------------------

      SCF Algorithm: Conventional
      Minimized density differences are used
      Number of density matrices in core                5
      Maximum number of NDDO SCF iterations           400
      Maximum number of HF SCF iterations             400
      Threshold for SCF energy change            0.10E-08
      Threshold for density matrix               0.10E-03
      Threshold for Fock matrix                  0.15E-03
      Threshold for linear dependence            0.10E-08
      Threshold at which DIIS is turned on       0.15E+00
      Threshold at which QNR/C2DIIS is turned on 0.75E-01
      Threshold for Norm(delta) (QNR/C2DIIS)     0.20E-04
      DIIS extrapolation of the SCF procedure
      All orbitals punched on: SCFORB
--

      Input vectors read from INPORB
      Orbital file label: *Guess orbitals


++ Convergence information
                                   SCF        iterations: Energy and convergence statistics

Iter     Tot. SCF        One-elec.       Two-elec.     Energy      Max Dij or  Max Fij      DNorm      TNorm      AccCon     Time
         Energy          Energy          Energy        Change      Delta Norm                                                in Sec.
   1  -108.707230664  -191.849085778    59.561489378   0.00E+00    0.16E+00*   0.18E+00*    0.50E+01   0.89E+02   None         0.
   2  -108.969308746  -194.970433876    62.420759393  -0.26E+00*   0.51E-01*   0.48E-01*    0.30E+01   0.91E+02   EDIIS        0.
   3  -108.983355927  -193.973137613    61.409415949  -0.14E-01*   0.12E-01*   0.12E-01*    0.77E+00   0.90E+02   EDIIS        0.
   4  -108.984356063  -194.229605454    61.664883654  -0.10E-02*   0.48E-02*   0.26E-02*    0.11E+00   0.90E+02   c2DIIS       0.
   5  -108.984436342  -194.167424278    61.602622200  -0.80E-04*   0.14E-02*   0.73E-03*    0.13E-01   0.90E+02   QNRc2DIIS    0.
   6  -108.984442248  -194.168569513    61.603761529  -0.59E-05*   0.67E-03*   0.24E-03*    0.18E-02   0.90E+02   QNRc2DIIS    0.
   7  -108.984442932  -194.166897385    61.602088717  -0.68E-06*   0.31E-04*   0.23E-04     0.18E-03   0.90E+02   QNRc2DIIS    0.
   8  -108.984442936  -194.167348259    61.602539587  -0.36E-08*   0.58E-05    0.33E-05     0.19E-04   0.90E+02   QNRc2DIIS    0.
   9  -108.984442936  -194.167342857    61.602534185  -0.87E-10    0.34E-06    0.12E-06     0.20E-03   0.90E+02   QNRc2DIIS    0.

       Convergence after  9 Macro Iterations
--

 *****************************************************************************************************************************
 *                                                                                                                           *
 *                                             SCF/KS-DFT Program, Final results                                             *
 *                                                                                                                           *
 *                                                                                                                           *
 *                                                                                                                           *
 *                                                       Final Results                                                       *
 *                                                                                                                           *
 *****************************************************************************************************************************

::    Total SCF energy                               -108.9844429358
      One-electron energy                            -194.1673428571
      Two-electron energy                              61.6025341850
      Nuclear repulsion energy                         23.5803657363
      Kinetic energy (interpolated)                   108.7233114575
      Virial theorem                                    1.0024017984
      Total spin, S(S+1)                                0.0000000000
      Total spin, S                                     0.0000000000
      Max non-diagonal density matrix element           0.0000002180
      Max non-diagonal Fock matrix element              0.0000000431


      All orbitals with orbital energies smaller than  E(LUMO)+0.5 are printed

++    Molecular orbitals:
      -------------------

      Title: SCF orbitals

      Molecular orbitals for symmetry species 1: ag 

          Orbital            1         2         3         4         5         6         7         8         9        10    
          Energy          -15.6860   -1.4709   -0.6343    0.0090    0.0416    0.0508    0.0538    0.1184    0.1403    0.1566
          Occ. No.          2.0000    2.0000    2.0000    0.0000    0.0000    0.0000    0.0000    0.0000    0.0000    0.0000

        1 N1     1s         0.9998    0.0238    0.0064   -0.0009    0.0003   -0.0100   -0.0000   -0.0048   -0.0181   -0.0000
        2 N1     1s         0.0019   -0.8986    0.3408   -0.0325    0.0721   -0.0462   -0.0000   -0.1537   -0.0223   -0.0000
        3 N1     1s         0.0013    0.0049   -0.0012    0.0002    0.0019   -0.0052    0.0000    0.0006   -0.0115   -0.0000
        4 N1     1s         0.0018    0.1788    0.2255    0.0008    0.0639   -0.4622    0.0000    0.0007   -1.0580   -0.0000
        5 N1     1s         0.0027   -0.0171    0.1412   -1.4250   -4.1398   -5.4267    0.0000  -10.7982  -12.7877   -0.0000
        6 N1     2pz       -0.0071    0.4837    0.9864   -0.0323    0.0716    0.0028    0.0000   -0.1253   -0.0377   -0.0000
        7 N1     2pz        0.0036   -0.0531   -0.0664    0.0028    0.0028    0.0258   -0.0000    0.0156    0.0649    0.0000
        8 N1     2pz        0.0049   -0.1837   -0.1249   -0.0099   -0.0364   -0.2464    0.0000   -0.0948   -0.5454   -0.0000
        9 N1     2pz        0.0102   -0.0935    0.1771   -1.4462   -4.4579   -8.1354    0.0000  -10.9529  -19.4385   -0.0000
       10 N1     3d0        0.0008   -0.0286   -0.0258   -0.0001   -0.0015   -0.0019   -0.0000   -0.0024    0.0014    0.0000
       11 N1     3d0       -0.0013   -0.0218   -0.0212    0.0012    0.0088    0.0101    0.0000    0.0086    0.0424    0.0000
       12 N1     3d0       -0.0004    0.0362    0.0103   -0.0319   -0.0656    0.1726   -0.0000   -0.2121    0.3778    0.0000
       13 N1     3d2+       0.0000   -0.0000   -0.0000   -0.0000   -0.0000   -0.0000   -0.0017   -0.0000   -0.0000    0.0078
       14 N1     3d2+      -0.0000    0.0000    0.0000    0.0000    0.0000    0.0000    0.0168    0.0000    0.0000   -0.0239
       15 N1     3d2+       0.0000    0.0000   -0.0000   -0.0000   -0.0000   -0.0000   -0.0965   -0.0000   -0.0000    0.2567
       16 N1     4f0        0.0002    0.0107    0.0082   -0.0007   -0.0016    0.0005   -0.0000   -0.0039   -0.0006   -0.0000
       17 N1     4f0        0.0006   -0.0071   -0.0037    0.0026    0.0035   -0.0188    0.0000    0.0154   -0.0436   -0.0000
       18 N1     4f2+      -0.0000    0.0000    0.0000    0.0000    0.0000    0.0000    0.0002    0.0000    0.0000   -0.0008
       19 N1     4f2+      -0.0000   -0.0000    0.0000   -0.0000    0.0000   -0.0000    0.0004    0.0000    0.0000   -0.0026
       20 X1     1s        -0.0036    0.0270   -0.1254    2.7075    8.3494    6.8654   -0.0000   19.1264   15.0072    0.0000
       21 X1     1s        -0.0002    0.0030    0.0272   -2.9981   -7.9052   -1.6571    0.0000  -10.3229   -2.9825   -0.0000
       22 X1     1s         0.0002   -0.0015   -0.0054    2.6093    3.4875    0.2152   -0.0000    2.9811    0.4192    0.0000
       23 X1     3d0       -0.0023   -0.0038   -0.0516    0.2027    0.6019    0.6023   -0.0000    1.4913    1.5362    0.0000
       24 X1     3d0       -0.0025    0.0325   -0.0346    0.4974    1.6271    3.6644   -0.0000    3.7184    8.4911    0.0000
       25 X1     3d0        0.0003   -0.0051    0.0013   -0.1152   -0.3896   -1.9900    0.0000   -0.4784   -2.0242   -0.0000
       26 X1     3d2+      -0.0000   -0.0000    0.0000    0.0000    0.0000    0.0000    0.4296    0.0000    0.0000   -1.0853
       27 X1     3d2+       0.0000   -0.0000   -0.0000   -0.0000   -0.0000   -0.0000   -0.9757   -0.0000   -0.0000    2.6604
       28 X1     3d2+      -0.0000   -0.0000   -0.0000    0.0000    0.0000    0.0000    1.5672    0.0000    0.0000   -1.4089

          Orbital           11        12        13    
          Energy            0.2787    0.3046    0.3536
          Occ. No.          0.0000    0.0000    0.0000

        1 N1     1s        -0.0136    0.0332   -0.0000
        2 N1     1s         0.0703    0.3558   -0.0000
        3 N1     1s        -0.0160    0.0290   -0.0000
        4 N1     1s        -1.3205    2.3100    0.0000
        5 N1     1s       -28.8212   -0.2881    0.0000
        6 N1     2pz        0.1835    0.0427   -0.0000
        7 N1     2pz        0.0999   -0.0671    0.0000
        8 N1     2pz       -0.9358    0.8030   -0.0000
        9 N1     2pz      -40.7704    8.6957    0.0000
       10 N1     3d0       -0.0157    0.0105    0.0000
       11 N1     3d0        0.0725    0.0185    0.0000
       12 N1     3d0        0.0671   -1.0223   -0.0000
       13 N1     3d2+      -0.0000    0.0000   -0.0004
       14 N1     3d2+       0.0000   -0.0000    0.1186
       15 N1     3d2+      -0.0000    0.0000   -0.5299
       16 N1     4f0       -0.0050   -0.0112   -0.0000
       17 N1     4f0       -0.0389    0.0852   -0.0000
       18 N1     4f2+       0.0000    0.0000   -0.0001
       19 N1     4f2+      -0.0000    0.0000   -0.0035
       20 X1     1s        35.2232    2.8673   -0.0000
       21 X1     1s        -9.1631   -3.8226    0.0000
       22 X1     1s         1.8866    1.1480   -0.0000
       23 X1     3d0        5.0615    0.8178   -0.0000
       24 X1     3d0       12.5025   -4.0914   -0.0000
       25 X1     3d0       -1.4604    0.8862    0.0000
       26 X1     3d2+       0.0000   -0.0000    2.9659
       27 X1     3d2+      -0.0000    0.0000   -2.7370
       28 X1     3d2+       0.0000   -0.0000    0.9872

      Molecular orbitals for symmetry species 2: b3u

          Orbital            1         2         3         4         5    
          Energy           -0.6136    0.0118    0.0411    0.1058    0.2624
          Occ. No.          2.0000    0.0000    0.0000    0.0000    0.0000

        1 N1     2px        0.8873   -0.0128   -0.0535   -0.1050    0.2965
        2 N1     2px       -0.0104   -0.0048    0.0127   -0.0276   -0.0879
        3 N1     2px       -0.0520    0.0181   -0.0506    0.1023    0.4253
        4 N1     2px       -0.0034   -0.1410    0.3374   -1.0230   -2.8898
        5 N1     3d1+      -0.0283    0.0006    0.0019    0.0044   -0.0114
        6 N1     3d1+      -0.0518    0.0011    0.0046    0.0093   -0.0227
        7 N1     3d1+      -0.0103    0.0029   -0.0060    0.0172    0.0150
        8 N1     4f1+       0.0114    0.0000   -0.0013   -0.0004    0.0080
        9 N1     4f1+       0.0014   -0.0007    0.0016   -0.0042   -0.0056
       10 N1     4f3+      -0.0000   -0.0000    0.0000   -0.0000   -0.0000
       11 N1     4f3+       0.0000    0.0000   -0.0000    0.0000    0.0000
       12 X1     2px        0.0237    0.6302   -1.7015    4.6378    5.2565
       13 X1     2px       -0.0161   -1.3467    3.6354   -4.2885   -3.2095
       14 X1     2px        0.0053    1.7966   -1.9507    1.5053    0.9611

      Molecular orbitals for symmetry species 3: b2u

          Orbital            1         2         3         4         5    
          Energy           -0.6136    0.0118    0.0411    0.1058    0.2624
          Occ. No.          2.0000    0.0000    0.0000    0.0000    0.0000

        1 N1     2py        0.8873   -0.0128   -0.0535   -0.1050    0.2965
        2 N1     2py       -0.0104   -0.0048    0.0127   -0.0276   -0.0879
        3 N1     2py       -0.0520    0.0181   -0.0506    0.1023    0.4253
        4 N1     2py       -0.0034   -0.1410    0.3374   -1.0230   -2.8898
        5 N1     3d1-      -0.0283    0.0006    0.0019    0.0044   -0.0114
        6 N1     3d1-      -0.0518    0.0011    0.0046    0.0093   -0.0227
        7 N1     3d1-      -0.0103    0.0029   -0.0060    0.0172    0.0150
        8 N1     4f3-       0.0000   -0.0000   -0.0000    0.0000    0.0000
        9 N1     4f3-      -0.0000   -0.0000    0.0000   -0.0000   -0.0000
       10 N1     4f1-       0.0114    0.0000   -0.0013   -0.0004    0.0080
       11 N1     4f1-       0.0014   -0.0007    0.0016   -0.0042   -0.0056
       12 X1     2py        0.0237    0.6302   -1.7015    4.6378    5.2565
       13 X1     2py       -0.0161   -1.3467    3.6354   -4.2885   -3.2095
       14 X1     2py        0.0053    1.7966   -1.9507    1.5053    0.9611

      Molecular orbitals for symmetry species 4: b1g

          Orbital            1         2         3    
          Energy            0.0538    0.1566    0.3536
          Occ. No.          0.0000    0.0000    0.0000

        1 N1     3d2-      -0.0017    0.0078   -0.0004
        2 N1     3d2-       0.0168   -0.0239    0.1186
        3 N1     3d2-      -0.0965    0.2567   -0.5299
        4 N1     4f2-       0.0002   -0.0008   -0.0001
        5 N1     4f2-       0.0004   -0.0026   -0.0035
        6 X1     3d2-       0.4296   -1.0853    2.9659
        7 X1     3d2-      -0.9757    2.6604   -2.7370
        8 X1     3d2-       1.5672   -1.4089    0.9872

      Molecular orbitals for symmetry species 5: b1u

          Orbital            1         2         3         4         5         6         7    
          Energy          -15.6825   -0.7802    0.0119    0.0415    0.1045    0.2026    0.3303
          Occ. No.          2.0000    2.0000    0.0000    0.0000    0.0000    0.0000    0.0000

        1 N1     1s         0.9994    0.0062   -0.0008   -0.0004   -0.0046    0.0061    0.0094
        2 N1     1s        -0.0016    0.9305   -0.0163    0.0450   -0.1173    0.1588   -0.2172
        3 N1     1s         0.0008    0.0003    0.0002    0.0017   -0.0013   -0.0153   -0.0462
        4 N1     1s         0.0305    0.3136    0.1166    0.2908    1.4232    9.9795   15.1108
        5 N1     1s         0.0110    0.0757    1.5303    3.7624   13.1323   57.6154   59.7370
        6 N1     2pz       -0.0044    0.4548   -0.0049    0.0198   -0.0341    0.0758   -0.0554
        7 N1     2pz        0.0009   -0.0316   -0.0032   -0.0066   -0.0466   -0.3343   -0.5289
        8 N1     2pz       -0.0121   -0.1637   -0.0623   -0.1298   -0.8126   -5.7044   -9.3169
        9 N1     2pz       -0.0025   -0.0101   -0.6884   -1.6800   -5.6336  -19.5425  -14.9423
       10 N1     3d0        0.0010   -0.0044    0.0003   -0.0004    0.0023   -0.0008    0.0046
       11 N1     3d0        0.0013   -0.0016    0.0009   -0.0033    0.0283    0.2299    0.4541
       12 N1     3d0        0.0022    0.0198    0.0280    0.0640    0.2581    1.3064    1.7510
       13 N1     3d2+       0.0000   -0.0000    0.0000   -0.0000   -0.0000   -0.0000   -0.0000
       14 N1     3d2+      -0.0000    0.0000    0.0000    0.0000    0.0000    0.0000    0.0000
       15 N1     3d2+       0.0000    0.0000   -0.0000   -0.0000    0.0000    0.0000    0.0000
       16 N1     4f0       -0.0007   -0.0015    0.0003    0.0009   -0.0000   -0.0133   -0.0325
       17 N1     4f0       -0.0000    0.0003   -0.0030   -0.0065   -0.0217   -0.0658   -0.0578
       18 N1     4f2+       0.0000    0.0000   -0.0000    0.0000    0.0000    0.0000    0.0000
       19 N1     4f2+      -0.0000   -0.0000    0.0000   -0.0000   -0.0000   -0.0000   -0.0000
       20 X1     2pz        0.0005    0.0064    0.9744    2.5888    7.0769    9.9215    2.1277
       21 X1     2pz       -0.0001   -0.0041   -1.5662   -4.0929   -5.1369   -3.8915    0.3416
       22 X1     2pz        0.0000    0.0013    1.8780    2.0543    1.6612    0.9353   -0.2457

      Molecular orbitals for symmetry species 6: b2g

          Orbital            1         2         3         4    
          Energy            0.0493    0.1186    0.1724    0.3153
          Occ. No.          0.0000    0.0000    0.0000    0.0000

        1 N1     2px        0.0556    0.4794   -0.6550   -0.4613
        2 N1     2px        0.0122   -0.0161   -0.0231    0.0174
        3 N1     2px        0.5221   -0.5485   -1.2983    1.7391
        4 N1     2px       12.1540  -18.4337  -30.0590   58.1546
        5 N1     3d1+       0.0033    0.0056   -0.0158    0.0041
        6 N1     3d1+      -0.0419    0.0962    0.0624   -0.2180
        7 N1     3d1+      -0.1930    0.2660    0.3308   -0.3798
        8 N1     4f1+       0.0006   -0.0051    0.0015    0.0132
        9 N1     4f1+       0.0289   -0.0464   -0.0508    0.1024
       10 N1     4f3+      -0.0000    0.0000    0.0000   -0.0000
       11 N1     4f3+       0.0000   -0.0000   -0.0000    0.0000
       12 X1     3d1+      -0.8162    1.3534    2.0533   -5.5849
       13 X1     3d1+      -4.2510    6.5655    9.4980  -14.6477
       14 X1     3d1+       2.0902   -1.6655   -1.7836    1.8052

      Molecular orbitals for symmetry species 7: b3g

          Orbital            1         2         3         4    
          Energy            0.0493    0.1186    0.1724    0.3153
          Occ. No.          0.0000    0.0000    0.0000    0.0000

        1 N1     2py        0.0556    0.4794   -0.6550   -0.4613
        2 N1     2py        0.0122   -0.0161   -0.0231    0.0174
        3 N1     2py        0.5221   -0.5485   -1.2983    1.7391
        4 N1     2py       12.1540  -18.4337  -30.0590   58.1546
        5 N1     3d1-       0.0033    0.0056   -0.0158    0.0041
        6 N1     3d1-      -0.0419    0.0962    0.0624   -0.2180
        7 N1     3d1-      -0.1930    0.2660    0.3308   -0.3798
        8 N1     4f3-       0.0000   -0.0000   -0.0000    0.0000
        9 N1     4f3-      -0.0000    0.0000    0.0000   -0.0000
       10 N1     4f1-       0.0006   -0.0051    0.0015    0.0132
       11 N1     4f1-       0.0289   -0.0464   -0.0508    0.1024
       12 X1     3d1-      -0.8162    1.3534    2.0533   -5.5849
       13 X1     3d1-      -4.2510    6.5655    9.4980  -14.6477
       14 X1     3d1-       2.0902   -1.6655   -1.7836    1.8052
--


++    Molecular charges:
      ------------------

      Mulliken charges per centre and basis function type
      ---------------------------------------------------

                N1      X1    
      1s       4.0414 -0.1004
      2px      0.9590  0.0069
      2pz      1.0234  0.0023
      2py      0.9590  0.0069
      3d2+     0.0000 -0.0000
      3d1+     0.0345  0.0000
      3d0      0.0010 -0.0372
      3d1-     0.0345  0.0000
      3d2-     0.0000  0.0000
      4f3+     0.0000  0.0000
      4f2+    -0.0000  0.0000
      4f1+     0.0030  0.0000
      4f0      0.0018  0.0000
      4f1-     0.0030  0.0000
      4f2-     0.0000  0.0000
      4f3-     0.0000  0.0000
      Total    7.0607 -0.1215

      N-E     -0.0607  0.1215

      Total electronic charge=   14.000000

      Total            charge=   -0.000000
--


++    Molecular properties:
      ---------------------

      Charge (e):
                      =   -0.0000
      Dipole Moment (Debye):
      Origin of the operator (Ang)=    0.0000    0.0000    0.0000
                   X=  0.0000E+00               Y=  0.0000E+00               Z=  0.0000E+00           Total=  0.0000E+00
      Quadrupole Moment (Debye*Ang):
      Origin of the operator (Ang)=    0.0000    0.0000    0.0000
                  XX= -1.0404E+01              XY=  0.0000E+00              XZ=  0.0000E+00              YY= -1.0404E+01
                  YZ=  0.0000E+00              ZZ= -1.1647E+01
      In traceless form (Debye*Ang)
                  XX=  6.2134E-01              XY=  0.0000E+00              XZ=  0.0000E+00              YY=  6.2134E-01
                  YZ=  0.0000E+00              ZZ= -1.2427E+00
--


  Input file to MOLDEN was generated!

 ###############################################################################
 ###############################################################################
 ###                                                                         ###
 ###                                                                         ###
 ###    WARNING: RunFile label nBas                                          ###
 ###    was used       71 times                                              ###
 ###                                                                         ###
 ###                                                                         ###
 ###############################################################################
 ###############################################################################
--- Stop Module: scf at Thu Aug 20 06:08:44 2020 /rc=_RC_ALL_IS_WELL_ ---
*** files: symm.scf.molden symm.ScfOrb symm.scf.h5 xmldump
    saved to directory /home/gayverjr/OpenCAP/molcas_example

*** symbolic link created: INPORB -> symm.ScfOrb
--- Start Module: mbpt2 at Thu Aug 20 06:08:44 2020 ---

()()()()()()()()()()()()()()()()()()()()()()()()()()()()()()()()()()()()()()()()()()()()()()()()()()

                                               &MBPT2

                                   only a single process is used
                       available to each process: 20 GB of memory, 16 threads
                                             pid: 30095
()()()()()()()()()()()()()()()()()()()()()()()()()()()()()()()()()()()()()()()()()()()()()()()()()()


      Cartesian coordinates in Angstrom:
      -----------------------------------------------------
      No.  Label        X            Y            Z        
      -----------------------------------------------------
       1   N1         0.00000000   0.00000000   0.54981512
       2   X1         0.00000000   0.00000000   0.00000000
       3   N1         0.00000000   0.00000000  -0.54981512
      -----------------------------------------------------
      Nuclear repulsion energy =   23.58036574

      Contents of RUNFILE file:
      -------------------------

      Symmetry species                           1   2   3   4   5   6   7   8
                                                ag b3u b2u b1g b1u b2g b3g  au
      Number of basis functions                 28  14  14   8  22  14  14   5
      Frozen occupied orbitals                   1   0   0   0   1   0   0   0
      Active occupied orbitals                   2   1   1   0   1   0   0   0
      Active external orbitals                  25  13  13   8  20  14  14   5
      Deleted external orbitals                  0   0   0   0   0   0   0   0


      Reference numbers of frozen occupied orbitals according to the original input sequence
      symmetry species 1                        1
      symmetry species 5                        1


      Energies of the active occupied orbitals

      symmetry species 1                    -1.470923     -0.634339

      symmetry species 2                    -0.613554

      symmetry species 3                    -0.613554

      symmetry species 5                    -0.780241


      Energies of the active external orbitals

      symmetry species 1                     0.009036      0.041601      0.050795      0.053782      0.118385
                                             0.140261      0.156590      0.278687      0.304552      0.353610
                                             0.530963      0.650208      0.715001      1.157019      1.306658
                                             1.547486      1.777186      1.825594      3.107620      4.044689
                                             4.447537      4.734835      5.225161      6.796787     11.477633

      symmetry species 2                     0.011837      0.041100      0.105813      0.262407      0.583292
                                             0.847436      1.371877      1.476541      2.159284      3.389187
                                             4.527061      4.661821      5.592245

      symmetry species 3                     0.011837      0.041100      0.105813      0.262407      0.583292
                                             0.847436      1.371877      1.476541      2.159284      3.389187
                                             4.527061      4.661821      5.592245

      symmetry species 4                     0.053782      0.156590      0.353610      0.715001      1.547486
                                             1.777186      4.447537      5.225161

      symmetry species 5                     0.011943      0.041473      0.104471      0.202642      0.330288
                                             0.580056      0.582153      0.788314      1.091368      1.571138
                                             1.666315      2.002470      2.315253      2.765465      4.565115
                                             5.156378      5.196967      5.742192      6.766708     19.220100

      symmetry species 6                     0.049256      0.118611      0.172424      0.315329      0.542185
                                             0.719324      1.226475      1.719811      1.819751      2.600834
                                             4.360116      5.041766      5.533564      6.889704

      symmetry species 7                     0.049256      0.118611      0.172424      0.315329      0.542185
                                             0.719324      1.226475      1.719811      1.819751      2.600834
                                             4.360116      5.041766      5.533564      6.889704

      symmetry species 8                     0.582153      1.571138      2.315253      5.156378      5.742192


      ********************************************************************************************************
      *                                               Results                                                *
      ********************************************************************************************************

 Conventional algorithm used...

  Input file to MOLDEN was generated!


       SCF energy                           =     -108.9844429358 a.u.
       Second-order correlation energy      =       -0.3802693106 a.u.

       Total energy                         =     -109.3647122464 a.u.
       Reference weight ( Cref**2 )         =        0.89220

::    Total MBPT2 energy                             -109.3647122464


++    Molecular properties:
      ---------------------

      Charge (e):
                      =   -0.0000
      Dipole Moment (Debye):
      Origin of the operator (Ang)=    0.0000    0.0000    0.0000
                   X=  0.0000E+00               Y=  0.0000E+00               Z=  0.0000E+00           Total=  0.0000E+00
      Quadrupole Moment (Debye*Ang):
      Origin of the operator (Ang)=    0.0000    0.0000    0.0000
                  XX= -1.0297E+01              XY=  0.0000E+00              XZ=  0.0000E+00              YY= -1.0297E+01
                  YZ=  0.0000E+00              ZZ= -1.1897E+01
      In traceless form (Debye*Ang)
                  XX=  7.9980E-01              XY=  0.0000E+00              XZ=  0.0000E+00              YY=  7.9980E-01
                  YZ=  0.0000E+00              ZZ= -1.5996E+00
--


       Zeroth-order energy (E0)             =      -47.3819087509 a.u.

       Shanks-type energy S1(E)             =     -109.3670742098 a.u.




       Data processing and timing information:

       Section                                              time(sec)
                                                          CPU  Elapsed

      Input data processing                              0.04      0.05
      Transformation of integrals                        0.57      0.92
      MBPT2 calculations (BJAI)                          1.06      1.45
      Total MBPT2 calculations                           1.67      2.42


 ###############################################################################
 ###############################################################################
 ###                                                                         ###
 ###                                                                         ###
 ###    WARNING: RunFile label nBas                                          ###
 ###    was used       53 times                                              ###
 ###                                                                         ###
 ###                                                                         ###
 ###############################################################################
 ###############################################################################
--- Stop Module: mbpt2 at Thu Aug 20 06:08:46 2020 /rc=_RC_ALL_IS_WELL_ ---
*** files: symm.mp2.molden symm.MP2Orb xmldump
    saved to directory /home/gayverjr/OpenCAP/molcas_example
--- Module mbpt2 spent 2 seconds ---

>>> COPY /home/gayverjr/OpenCAP/molcas_example/symm.MP2Orb INPORB

--- Start Module: rasscf at Thu Aug 20 06:08:46 2020 ---

()()()()()()()()()()()()()()()()()()()()()()()()()()()()()()()()()()()()()()()()()()()()()()()()()()

                                              &RASSCF

                                   only a single process is used
                       available to each process: 20 GB of memory, 16 threads
                                             pid: 30119
()()()()()()()()()()()()()()()()()()()()()()()()()()()()()()()()()()()()()()()()()()()()()()()()()()


      Header of the ONEINT file:
      --------------------------
      
      Integrals generated by seward 4.2.0  , Thu Aug 20 06:08:40 2020


      OrdInt status: non-squared


      Cartesian coordinates in Angstrom:
      -----------------------------------------------------
      No.  Label        X            Y            Z        
      -----------------------------------------------------
       1   N1         0.00000000   0.00000000   0.54981512
       2   X1         0.00000000   0.00000000   0.00000000
       3   N1         0.00000000   0.00000000  -0.54981512
      -----------------------------------------------------
      Nuclear repulsion energy =   23.58036574

++    Wave function specifications:
      -----------------------------

      Number of closed shell electrons          10
      Number of electrons in active shells       4
      Max number of holes in RAS1 space          0
      Max nr of electrons in RAS3 space          0
      Number of inactive orbitals                5
      Number of active orbitals                  4
      Number of secondary orbitals             110
      Spin quantum number                      0.0
      State symmetry                             1
--

++    Orbital specifications:
      -----------------------

      Symmetry species                           1   2   3   4   5   6   7   8
                                                ag b3u b2u b1g b1u b2g b3g  au
      Frozen orbitals                            0   0   0   0   0   0   0   0
      Inactive orbitals                          3   0   0   0   2   0   0   0
      Active orbitals                            0   1   1   0   0   1   1   0
      RAS1 orbitals                              0   0   0   0   0   0   0   0
      RAS2 orbitals                              0   1   1   0   0   1   1   0
      RAS3 orbitals                              0   0   0   0   0   0   0   0
      Secondary orbitals                        25  13  13   8  20  13  13   5
      Deleted orbitals                           0   0   0   0   0   0   0   0
      Number of basis functions                 28  14  14   8  22  14  14   5
--

++    CI expansion specifications:
      ----------------------------

      Number of CSFs                             8
      Number of determinants                     9
      Number of root(s) required                 8
      Root chosen for geometry opt.              8
      CI roots used                              1     2     3     4     5     6     7     8
      weights                                0.125 0.125 0.125 0.125 0.125 0.125 0.125 0.125
      highest root included in the CI            8
      max. size of the explicit Hamiltonian      8
--

++    Optimization specifications:
      ----------------------------

      RASSCF algorithm: Conventional
      Maximum number of macro iterations       200
      Maximum number of SX iterations          100
      Threshold for RASSCF energy            0.100E-07
      Threshold for max MO rotation          0.100E+00
      Threshold for max BLB element          0.100E-03
      Level shift parameter                  0.500E+00
      Make Quasi-Newton update
--

      The MO-coefficients are taken from the file:
      INPORB                                                                                                                          
      Title:  Natural MP2 orbitals                                                         

      Total molecular charge    0.00

      ************************************************************************************************************************
      *                                                                                                                      *
      *                                            Wave function control section                                             *
      *                                                                                                                      *
      ************************************************************************************************************************


                                         RASSCF iterations: Energy and convergence statistics
                                         ----------------------------------------------------

      Iter CI   SX   CI       RASSCF       Energy    max ROT     max BLB   max BLB  Level Ln srch  Step   QN   Walltime
          iter iter root      energy       change     param      element    value   shift minimum  type update hh:mm:ss
 Nr of preliminary CI iterations:   1
        1   1   19    0  -108.00444986    0.00E+00   0.11E+00*   1   3 7  0.26E+00*  0.37   0.00    SX    NO    0:00:00
        2   1   19    0  -108.14039937   -0.14E+00* -0.43E-01    3   5 1  0.68E-01*  0.26   0.00    SX    NO    0:00:00
        3   1   18    0  -108.16568753   -0.25E-01*  0.20E-01    3   5 1  0.27E-01*  0.25   0.00    SX    NO    0:00:00
        4   1   18    0  -108.17205213   -0.64E-02* -0.12E-01    3   5 1  0.16E-01*  0.24   0.00    SX    NO    0:00:00
        5   1   17    0  -108.17389131   -0.18E-02* -0.14E-01    2   4 5  0.83E-02*  0.23   2.21    LS   YES    0:00:00
        6   1   15    0  -108.17467792   -0.79E-03*  0.38E-02    3   4 1 -0.22E-02*  0.23   1.09    QN   YES    0:00:00
        7   1   14    0  -108.17474428   -0.66E-04*  0.28E-02    1  12 7 -0.11E-02*  0.23   1.75    LS   YES    0:00:00
        8   1   15    0  -108.17475926   -0.15E-04*  0.91E-03    2   4 5 -0.84E-03*  0.23   1.01    QN   YES    0:00:00
        9   1   13    0  -108.17476583   -0.66E-05*  0.70E-03    2   4 5 -0.35E-03*  0.23   1.40    QN   YES    0:00:00
       10   1   10    0  -108.17476702   -0.12E-05*  0.27E-03    1  14 7 -0.92E-04   0.23   1.17    QN   YES    0:00:00
       11   1    9    0  -108.17476713   -0.11E-06*  0.12E-03    1  14 6 -0.36E-04   0.23   1.31    QN   YES    0:00:00
       12   1    8    0  -108.17476714   -0.16E-07*  0.29E-04    2   4 5  0.14E-04   0.23   1.19    QN   YES    0:00:00
       13   1    6    0  -108.17476714   -0.15E-08  -0.97E-05    2   5 1  0.41E-05   0.23   1.28    QN   YES    0:00:00
      Convergence after 13 iterations
       14   1    6    0  -108.17476714   -0.19E-09  -0.97E-05    3  28 1  0.13E-05   0.23   1.28    QN   YES    0:00:00

      ************************************************************************************************************************
                                                      Wave function printout:
                       occupation of active orbitals, and spin coupling of open shells (u,d: Spin up or down)
      ************************************************************************************************************************

      Note: transformation to natural orbitals
      has been made, which may change the order of the CSFs.

      printout of CI-coefficients larger than  0.05 for root  1
      energy=    -109.044736
      conf/sym  2 3 6 7     Coeff  Weight
             1  2 2 0 0   0.96975 0.94042
             3  2 0 0 2  -0.13151 0.01729
             4  0 2 2 0  -0.13151 0.01729
             6  u d u d   0.11398 0.01299
             7  u u d d  -0.09868 0.00974

      printout of CI-coefficients larger than  0.05 for root  2
      energy=    -108.427096
      conf/sym  2 3 6 7     Coeff  Weight
             1  2 2 0 0   0.08322 0.00692
             2  2 0 2 0  -0.14033 0.01969
             3  2 0 0 2   0.36062 0.13005
             4  0 2 2 0   0.36062 0.13005
             5  0 2 0 2  -0.14033 0.01969
             6  u d u d  -0.48906 0.23918
             7  u u d d  -0.67295 0.45286

      printout of CI-coefficients larger than  0.05 for root  3
      energy=    -108.360641
      conf/sym  2 3 6 7     Coeff  Weight
             2  2 0 2 0  -0.35486 0.12593
             3  2 0 0 2   0.34925 0.12197
             4  0 2 2 0   0.34925 0.12197
             5  0 2 0 2  -0.35486 0.12593
             6  u d u d   0.71005 0.50416

      printout of CI-coefficients larger than  0.05 for root  4
      energy=    -108.273883
      conf/sym  2 3 6 7     Coeff  Weight
             2  2 0 2 0  -0.70642 0.49903
             5  0 2 0 2   0.70642 0.49903

      printout of CI-coefficients larger than  0.05 for root  5
      energy=    -108.234831
      conf/sym  2 3 6 7     Coeff  Weight
             1  2 2 0 0   0.05760 0.00332
             2  2 0 2 0   0.59422 0.35310
             3  2 0 0 2   0.30221 0.09133
             4  0 2 2 0   0.30221 0.09133
             5  0 2 0 2   0.59422 0.35310
             6  u d u d   0.29793 0.08876
             7  u u d d  -0.13072 0.01709

      printout of CI-coefficients larger than  0.05 for root  6
      energy=    -108.159313
      conf/sym  2 3 6 7     Coeff  Weight
             3  2 0 0 2   0.70642 0.49903
             4  0 2 2 0  -0.70642 0.49903

      printout of CI-coefficients larger than  0.05 for root  7
      energy=    -107.786366
      conf/sym  2 3 6 7     Coeff  Weight
             1  2 2 0 0  -0.20811 0.04331
             3  2 0 0 2  -0.30926 0.09564
             4  0 2 2 0  -0.30926 0.09564
             6  u d u d   0.33852 0.11459
             7  u u d d  -0.64394 0.41466
             8  0 0 2 2   0.48412 0.23437

      printout of CI-coefficients larger than  0.05 for root  8
      energy=    -107.111272
      conf/sym  2 3 6 7     Coeff  Weight
             1  2 2 0 0   0.07762 0.00602
             3  2 0 0 2   0.20907 0.04371
             4  0 2 2 0   0.20907 0.04371
             6  u d u d  -0.20075 0.04030
             7  u u d d   0.32497 0.10561
             8  0 0 2 2   0.87207 0.76050

      Natural orbitals and occupation numbers for root  1
      sym 2:   1.938812
      sym 3:   1.938812
      sym 6:   0.061188
      sym 7:   0.061188

      Natural orbitals and occupation numbers for root  2
      sym 2:   1.005373
      sym 3:   1.005373
      sym 6:   0.994627
      sym 7:   0.994627

      Natural orbitals and occupation numbers for root  3
      sym 2:   1.000001
      sym 3:   1.000001
      sym 6:   0.999999
      sym 7:   0.999999

      Natural orbitals and occupation numbers for root  4
      sym 2:   1.000000
      sym 3:   1.000000
      sym 6:   1.000000
      sym 7:   1.000000

      Natural orbitals and occupation numbers for root  5
      sym 2:   1.001355
      sym 3:   1.001355
      sym 6:   0.998645
      sym 7:   0.998645

      Natural orbitals and occupation numbers for root  6
      sym 2:   1.000000
      sym 3:   1.000000
      sym 6:   1.000000
      sym 7:   1.000000

      Natural orbitals and occupation numbers for root  7
      sym 2:   0.808936
      sym 3:   0.808936
      sym 6:   1.191064
      sym 7:   1.191064

      Natural orbitals and occupation numbers for root  8
      sym 2:   0.245523
      sym 3:   0.245523
      sym 6:   1.754477
      sym 7:   1.754477

      ************************************************************************************************************************
      *                                                                                                                      *
      *                                                    Final results                                                     *
      *                                                                                                                      *
      ************************************************************************************************************************


++    Wave function specifications:
      -----------------------------

      Number of closed shell electrons          10
      Number of electrons in active shells       4
      Max number of holes in RAS1 space          0
      Max nr of electrons in RAS3 space          0
      Number of inactive orbitals                5
      Number of active orbitals                  4
      Number of secondary orbitals             110
      Spin quantum number                      0.0
      State symmetry                             1
--

++    Orbital specifications:
      -----------------------

      Symmetry species                           1   2   3   4   5   6   7   8
                                                ag b3u b2u b1g b1u b2g b3g  au
      Frozen orbitals                            0   0   0   0   0   0   0   0
      Inactive orbitals                          3   0   0   0   2   0   0   0
      Active orbitals                            0   1   1   0   0   1   1   0
      RAS1 orbitals                              0   0   0   0   0   0   0   0
      RAS2 orbitals                              0   1   1   0   0   1   1   0
      RAS3 orbitals                              0   0   0   0   0   0   0   0
      Secondary orbitals                        25  13  13   8  20  13  13   5
      Deleted orbitals                           0   0   0   0   0   0   0   0
      Number of basis functions                 28  14  14   8  22  14  14   5
--

++    CI expansion specifications:
      ----------------------------

      Number of CSFs                             8
      Number of determinants                     9
      Number of root(s) required                 8
      CI roots used                              1     2     3     4     5     6     7     8
      weights                                0.125 0.125 0.125 0.125 0.125 0.125 0.125 0.125
      highest root included in the CI            8
      Root passed to geometry opt.               8
--

++    Final optimization conditions:
      ------------------------------

      Average CI energy                            -108.17476714
      RASSCF energy for state  8                   -107.11127213
      Super-CI energy                                -0.00000000
      RASSCF energy change                           -0.00000000
      Max change in MO coefficients               0.354E-03
      Max non-diagonal density matrix element    -0.967E-05
      Maximum BLB matrix element                  0.125E-05
      (orbital pair   3,  28 in symmetry   1)
      Norm of electronic gradient            0.307E+00
--


      Final state energy(ies):
      ------------------------

::    RASSCF root number  1 Total energy:   -109.04473633
::    RASSCF root number  2 Total energy:   -108.42709593
::    RASSCF root number  3 Total energy:   -108.36064101
::    RASSCF root number  4 Total energy:   -108.27388250
::    RASSCF root number  5 Total energy:   -108.23483060
::    RASSCF root number  6 Total energy:   -108.15931288
::    RASSCF root number  7 Total energy:   -107.78636577
::    RASSCF root number  8 Total energy:   -107.11127213

++    Molecular orbitals:
      -------------------

      Pseudonatural active orbitals and approximate occupation numbers




      Molecular orbitals for symmetry species 1: ag 


      Orbital                 1         2         3         4         5         6         7         8         9
      Energy           -15.7178   -1.5405   -0.6553    0.0089    0.0408    0.0512    0.0531    0.1165    0.1399
      Occ. No.           2.0000    2.0000    2.0000    0.0000    0.0000    0.0000    0.0000    0.0000    0.0000

     1 N1     1s         0.9998   -0.0249    0.0082   -0.0012   -0.0015    0.0102    0.0000    0.0046   -0.0173
     2 N1     1s         0.0029    0.8864    0.3862   -0.0356   -0.0804    0.0414   -0.0000    0.1592   -0.0311
     3 N1     1s         0.0023   -0.0058    0.0001    0.0002   -0.0021    0.0048    0.0000   -0.0018   -0.0120
     4 N1     1s         0.0010   -0.1937    0.2245   -0.0049   -0.0962    0.4542   -0.0000   -0.0732   -1.0409
     5 N1     1s         0.0026    0.0149    0.1343   -1.4341    3.7578    5.7541    0.0000    9.5163  -14.0219
     6 N1     2pz       -0.0117   -0.5275    0.9659   -0.0336   -0.0730   -0.0069   -0.0000    0.1240   -0.0430
     7 N1     2pz        0.0067    0.0516   -0.0661    0.0033   -0.0002   -0.0261    0.0000   -0.0122    0.0647
     8 N1     2pz        0.0072    0.2004   -0.1210   -0.0117    0.0204    0.2482    0.0000    0.0521   -0.5490
     9 N1     2pz        0.0103    0.0945    0.1835   -1.4759    3.9021    8.4659    0.0000    9.1692  -20.6576
    10 N1     3d0        0.0010    0.0349   -0.0322    0.0002    0.0018    0.0020    0.0000    0.0017    0.0012
    11 N1     3d0       -0.0022    0.0339   -0.0399    0.0017   -0.0072   -0.0105    0.0000   -0.0063    0.0449
    12 N1     3d0       -0.0007   -0.0378    0.0017   -0.0291    0.0768   -0.1682   -0.0000    0.2334    0.3402
    13 N1     3d2+       0.0000    0.0000    0.0000   -0.0000    0.0000    0.0000   -0.0017    0.0000   -0.0000
    14 N1     3d2+       0.0000   -0.0000   -0.0000    0.0000   -0.0000   -0.0000    0.0168   -0.0000    0.0000
    15 N1     3d2+       0.0000    0.0000   -0.0000   -0.0000    0.0000    0.0000   -0.0955    0.0000   -0.0000
    16 N1     4f0        0.0004   -0.0142    0.0097   -0.0007    0.0014   -0.0003   -0.0000    0.0040   -0.0011
    17 N1     4f0        0.0009    0.0035   -0.0028    0.0026   -0.0041    0.0180    0.0000   -0.0200   -0.0432
    18 N1     4f2+      -0.0000   -0.0000   -0.0000    0.0000   -0.0000   -0.0000    0.0002   -0.0000    0.0000
    19 N1     4f2+      -0.0000    0.0000    0.0000    0.0000    0.0000    0.0000    0.0002   -0.0000    0.0000
    20 X1     1s        -0.0036   -0.0255   -0.1193    2.7088   -7.7892   -7.5771   -0.0000  -17.5798   17.0915
    21 X1     1s        -0.0002   -0.0037    0.0226   -2.9585    7.7060    2.3507    0.0000    9.9983   -4.0099
    22 X1     1s         0.0002    0.0017   -0.0040    2.5844   -3.4593   -0.4996   -0.0000   -2.9419    0.6983
    23 X1     3d0       -0.0022    0.0056   -0.0516    0.1994   -0.5664   -0.6423   -0.0000   -1.3182    1.7380
    24 X1     3d0       -0.0025   -0.0335   -0.0371    0.5128   -1.3854   -3.7915   -0.0000   -2.9445    8.8580
    25 X1     3d0        0.0003    0.0053    0.0018   -0.1355    0.2380    2.0170    0.0000    0.2845   -2.0575
    26 X1     3d2+      -0.0000   -0.0000    0.0000    0.0000   -0.0000   -0.0000    0.4282   -0.0000    0.0000
    27 X1     3d2+       0.0000   -0.0000   -0.0000   -0.0000    0.0000    0.0000   -0.9616    0.0000   -0.0000
    28 X1     3d2+      -0.0000    0.0000    0.0000    0.0000   -0.0000   -0.0000    1.5586   -0.0000    0.0000



      Molecular orbitals for symmetry species 2: b3u


      Orbital                 1         2         3         4
      Energy             0.0000    0.0117    0.0404    0.1037
      Occ. No.           1.0000    0.0000    0.0000    0.0000

     1 N1     2px        0.9021   -0.0130    0.0533   -0.1035
     2 N1     2px       -0.0117   -0.0051   -0.0115   -0.0293
     3 N1     2px       -0.0680    0.0176    0.0515    0.0964
     4 N1     2px       -0.0106   -0.1383   -0.3375   -0.9801
     5 N1     3d1+      -0.0313    0.0006   -0.0020    0.0046
     6 N1     3d1+      -0.0579    0.0014   -0.0058    0.0115
     7 N1     3d1+      -0.0072    0.0019    0.0099    0.0071
     8 N1     4f1+       0.0133   -0.0000    0.0015   -0.0007
     9 N1     4f1+       0.0026   -0.0006   -0.0022   -0.0029
    10 N1     4f3+      -0.0010    0.0000   -0.0000    0.0000
    11 N1     4f3+      -0.0011    0.0000   -0.0000    0.0000
    12 X1     2px        0.0295    0.6256    1.6621    4.5744
    13 X1     2px       -0.0189   -1.3269   -3.5968   -4.2862
    14 X1     2px        0.0061    1.7842    1.9474    1.5133



      Molecular orbitals for symmetry species 3: b2u


      Orbital                 1         2         3         4
      Energy             0.0000    0.0117    0.0404    0.1037
      Occ. No.           1.0000    0.0000    0.0000    0.0000

     1 N1     2py        0.9021   -0.0130    0.0533   -0.1035
     2 N1     2py       -0.0117   -0.0051   -0.0115   -0.0293
     3 N1     2py       -0.0680    0.0176    0.0515    0.0964
     4 N1     2py       -0.0106   -0.1383   -0.3375   -0.9801
     5 N1     3d1-      -0.0313    0.0006   -0.0020    0.0046
     6 N1     3d1-      -0.0579    0.0014   -0.0058    0.0115
     7 N1     3d1-      -0.0072    0.0019    0.0099    0.0071
     8 N1     4f3-       0.0010   -0.0000    0.0000   -0.0000
     9 N1     4f3-       0.0011   -0.0000    0.0000   -0.0000
    10 N1     4f1-       0.0133   -0.0000    0.0015   -0.0007
    11 N1     4f1-       0.0026   -0.0006   -0.0022   -0.0029
    12 X1     2py        0.0295    0.6256    1.6621    4.5744
    13 X1     2py       -0.0189   -1.3269   -3.5968   -4.2862
    14 X1     2py        0.0061    1.7842    1.9474    1.5133



      Molecular orbitals for symmetry species 4: b1g


      Orbital                 1
      Energy             0.0531
      Occ. No.           0.0000

     1 N1     3d2-      -0.0017
     2 N1     3d2-       0.0168
     3 N1     3d2-      -0.0955
     4 N1     4f2-       0.0002
     5 N1     4f2-       0.0002
     6 X1     3d2-       0.4282
     7 X1     3d2-      -0.9616
     8 X1     3d2-       1.5586



      Molecular orbitals for symmetry species 5: b1u


      Orbital                 1         2         3         4         5
      Energy           -15.7152   -0.8131    0.0122    0.0422    0.1046
      Occ. No.           2.0000    2.0000    0.0000    0.0000    0.0000

     1 N1     1s         0.9984    0.0075   -0.0008    0.0003   -0.0049
     2 N1     1s        -0.0036    0.9555   -0.0164   -0.0456   -0.1207
     3 N1     1s         0.0017   -0.0021    0.0001   -0.0019   -0.0018
     4 N1     1s         0.0170    0.3769    0.1409   -0.2283    1.5408
     5 N1     1s         0.0034    0.1359    1.6763   -3.3989   13.9370
     6 N1     2pz       -0.0084    0.4232   -0.0041   -0.0172   -0.0290
     7 N1     2pz        0.0055   -0.0417   -0.0041    0.0042   -0.0510
     8 N1     2pz       -0.0043   -0.1954   -0.0769    0.0908   -0.8887
     9 N1     2pz       -0.0007   -0.0235   -0.7369    1.5718   -5.8822
    10 N1     3d0        0.0010   -0.0091    0.0004    0.0006    0.0028
    11 N1     3d0        0.0001   -0.0156    0.0018    0.0061    0.0339
    12 N1     3d0        0.0010    0.0153    0.0306   -0.0587    0.2668
    13 N1     3d2+       0.0000    0.0000   -0.0000   -0.0000   -0.0000
    14 N1     3d2+      -0.0000   -0.0000   -0.0000   -0.0000    0.0000
    15 N1     3d2+      -0.0000    0.0000    0.0000   -0.0000    0.0000
    16 N1     4f0       -0.0008    0.0004    0.0002   -0.0013   -0.0009
    17 N1     4f0        0.0002    0.0022   -0.0032    0.0063   -0.0218
    18 N1     4f2+      -0.0000   -0.0000    0.0000    0.0000    0.0000
    19 N1     4f2+      -0.0000   -0.0000    0.0000    0.0000   -0.0000
    20 X1     2pz        0.0001    0.0087    1.0088   -2.5583    7.1705
    21 X1     2pz       -0.0000   -0.0044   -1.6031    4.0840   -5.1548
    22 X1     2pz        0.0000    0.0013    1.8951   -2.0426    1.6599



      Molecular orbitals for symmetry species 6: b2g


      Orbital                 1         2         3
      Energy             0.0000    0.0508    0.1435
      Occ. No.           1.0000    0.0000    0.0000

     1 N1     2px        1.0123   -0.0560   -0.1500
     2 N1     2px        0.0265    0.0116   -0.0293
     3 N1     2px        0.3827    0.5078   -1.1942
     4 N1     2px        0.6631   12.5562  -31.5299
     5 N1     3d1+       0.0065    0.0019   -0.0059
     6 N1     3d1+       0.0055   -0.0486    0.1064
     7 N1     3d1+      -0.0543   -0.2067    0.3772
     8 N1     4f1+      -0.0048    0.0014   -0.0023
     9 N1     4f1+      -0.0061    0.0317   -0.0619
    10 N1     4f3+      -0.0008    0.0000    0.0000
    11 N1     4f3+      -0.0014    0.0000    0.0000
    12 X1     3d1+       0.0008   -0.8490    2.2261
    13 X1     3d1+      -0.1166   -4.4393   10.5748
    14 X1     3d1+       0.0173    2.1561   -2.2847



      Molecular orbitals for symmetry species 7: b3g


      Orbital                 1         2         3
      Energy             0.0000    0.0508    0.1435
      Occ. No.           1.0000    0.0000    0.0000

     1 N1     2py        1.0123   -0.0560   -0.1500
     2 N1     2py        0.0265    0.0116   -0.0293
     3 N1     2py        0.3827    0.5078   -1.1942
     4 N1     2py        0.6631   12.5562  -31.5299
     5 N1     3d1-       0.0065    0.0019   -0.0059
     6 N1     3d1-       0.0055   -0.0486    0.1064
     7 N1     3d1-      -0.0543   -0.2067    0.3772
     8 N1     4f3-       0.0008   -0.0000   -0.0000
     9 N1     4f3-       0.0014   -0.0000   -0.0000
    10 N1     4f1-      -0.0048    0.0014   -0.0023
    11 N1     4f1-      -0.0061    0.0317   -0.0619
    12 X1     3d1-       0.0008   -0.8490    2.2261
    13 X1     3d1-      -0.1166   -4.4393   10.5748
    14 X1     3d1-       0.0173    2.1561   -2.2847
--

      Von Neumann Entropy (Root  1) =  0.39472


      Mulliken population analysis for root number:  1
      -----------------------------------------------


++    Molecular charges:
      ------------------

      Mulliken charges per centre and basis function type
      ---------------------------------------------------

                N1      X1    
      1s       4.1121 -0.0999
      2px      0.9578  0.0081
      2pz      0.9394  0.0033
      2py      0.9578  0.0081
      3d2+     0.0000  0.0000
      3d1+     0.0352 -0.0019
      3d0      0.0114 -0.0358
      3d1-     0.0352 -0.0019
      3d2-     0.0000  0.0000
      4f3+     0.0000  0.0000
      4f2+     0.0000  0.0000
      4f1+     0.0040  0.0000
      4f0      0.0033  0.0000
      4f1-     0.0040  0.0000
      4f2-     0.0000  0.0000
      4f3-     0.0000  0.0000
      Total    7.0600 -0.1200

      N-E     -0.0600  0.1200

      Total electronic charge=   14.000000

      Total            charge=   -0.000000
--



      Expectation values of various properties for root number:  1
      -----------------------------------------------------------


++    Molecular properties:
      ---------------------

      Charge (e):
                      =   -0.0000
      Dipole Moment (Debye):
      Origin of the operator (Ang)=    0.0000    0.0000    0.0000
                   X=  0.0000E+00               Y=  0.0000E+00               Z=  0.0000E+00           Total=  0.0000E+00
      Quadrupole Moment (Debye*Ang):
      Origin of the operator (Ang)=    0.0000    0.0000    0.0000
                  XX= -1.0256E+01              XY=  0.0000E+00              XZ=  0.0000E+00              YY= -1.0256E+01
                  YZ=  0.0000E+00              ZZ= -1.1007E+01
      In traceless form (Debye*Ang)
                  XX=  3.7508E-01              XY=  0.0000E+00              XZ=  0.0000E+00              YY=  3.7508E-01
                  YZ=  0.0000E+00              ZZ= -7.5016E-01
--

      Von Neumann Entropy (Root  2) =  1.99996


      Mulliken population analysis for root number:  2
      -----------------------------------------------


++    Molecular charges:
      ------------------

      Mulliken charges per centre and basis function type
      ---------------------------------------------------

                N1      X1    
      1s       4.1121 -0.0999
      2px      1.0091  0.0042
      2pz      0.9394  0.0033
      2py      1.0091  0.0042
      3d2+     0.0000  0.0000
      3d1+     0.0002 -0.0313
      3d0      0.0114 -0.0358
      3d1-     0.0002 -0.0313
      3d2-     0.0000  0.0000
      4f3+     0.0000  0.0000
      4f2+     0.0000  0.0000
      4f1+     0.0043  0.0000
      4f0      0.0033  0.0000
      4f1-     0.0043  0.0000
      4f2-     0.0000  0.0000
      4f3-     0.0000  0.0000
      Total    7.0933 -0.1867

      N-E     -0.0933  0.1867

      Total electronic charge=   14.000000

      Total            charge=   -0.000000
--



      Expectation values of various properties for root number:  2
      -----------------------------------------------------------


++    Molecular properties:
      ---------------------

      Charge (e):
                      =   -0.0000
      Dipole Moment (Debye):
      Origin of the operator (Ang)=    0.0000    0.0000    0.0000
                   X=  0.0000E+00               Y=  0.0000E+00               Z=  0.0000E+00           Total=  0.0000E+00
      Quadrupole Moment (Debye*Ang):
      Origin of the operator (Ang)=    0.0000    0.0000    0.0000
                  XX= -1.0973E+01              XY=  0.0000E+00              XZ=  0.0000E+00              YY= -1.0973E+01
                  YZ=  0.0000E+00              ZZ= -1.4657E+01
      In traceless form (Debye*Ang)
                  XX=  1.8418E+00              XY=  0.0000E+00              XZ=  0.0000E+00              YY=  1.8418E+00
                  YZ=  0.0000E+00              ZZ= -3.6836E+00
--

      Von Neumann Entropy (Root  3) =  2.00000


      Mulliken population analysis for root number:  3
      -----------------------------------------------


++    Molecular charges:
      ------------------

      Mulliken charges per centre and basis function type
      ---------------------------------------------------

                N1      X1    
      1s       4.1121 -0.0999
      2px      1.0094  0.0042
      2pz      0.9394  0.0033
      2py      1.0094  0.0042
      3d2+     0.0000  0.0000
      3d1+    -0.0000 -0.0315
      3d0      0.0114 -0.0358
      3d1-    -0.0000 -0.0315
      3d2-     0.0000  0.0000
      4f3+     0.0000  0.0000
      4f2+     0.0000  0.0000
      4f1+     0.0043  0.0000
      4f0      0.0033  0.0000
      4f1-     0.0043  0.0000
      4f2-     0.0000  0.0000
      4f3-     0.0000  0.0000
      Total    7.0935 -0.1870

      N-E     -0.0935  0.1870

      Total electronic charge=   14.000000

      Total            charge=   -0.000000
--



      Expectation values of various properties for root number:  3
      -----------------------------------------------------------


++    Molecular properties:
      ---------------------

      Charge (e):
                      =   -0.0000
      Dipole Moment (Debye):
      Origin of the operator (Ang)=    0.0000    0.0000    0.0000
                   X=  0.0000E+00               Y=  0.0000E+00               Z=  0.0000E+00           Total=  0.0000E+00
      Quadrupole Moment (Debye*Ang):
      Origin of the operator (Ang)=    0.0000    0.0000    0.0000
                  XX= -1.0978E+01              XY=  0.0000E+00              XZ=  0.0000E+00              YY= -1.0978E+01
                  YZ=  0.0000E+00              ZZ= -1.4678E+01
      In traceless form (Debye*Ang)
                  XX=  1.8502E+00              XY=  0.0000E+00              XZ=  0.0000E+00              YY=  1.8502E+00
                  YZ=  0.0000E+00              ZZ= -3.7005E+00
--

      Von Neumann Entropy (Root  4) =  2.00000


      Mulliken population analysis for root number:  4
      -----------------------------------------------


++    Molecular charges:
      ------------------

      Mulliken charges per centre and basis function type
      ---------------------------------------------------

                N1      X1    
      1s       4.1121 -0.0999
      2px      1.0094  0.0042
      2pz      0.9394  0.0033
      2py      1.0094  0.0042
      3d2+     0.0000  0.0000
      3d1+    -0.0000 -0.0315
      3d0      0.0114 -0.0358
      3d1-    -0.0000 -0.0315
      3d2-     0.0000  0.0000
      4f3+     0.0000  0.0000
      4f2+     0.0000  0.0000
      4f1+     0.0043  0.0000
      4f0      0.0033  0.0000
      4f1-     0.0043  0.0000
      4f2-     0.0000  0.0000
      4f3-     0.0000  0.0000
      Total    7.0935 -0.1870

      N-E     -0.0935  0.1870

      Total electronic charge=   14.000000

      Total            charge=   -0.000000
--



      Expectation values of various properties for root number:  4
      -----------------------------------------------------------


++    Molecular properties:
      ---------------------

      Charge (e):
                      =   -0.0000
      Dipole Moment (Debye):
      Origin of the operator (Ang)=    0.0000    0.0000    0.0000
                   X=  0.0000E+00               Y=  0.0000E+00               Z=  0.0000E+00           Total=  0.0000E+00
      Quadrupole Moment (Debye*Ang):
      Origin of the operator (Ang)=    0.0000    0.0000    0.0000
                  XX= -1.0978E+01              XY=  0.0000E+00              XZ=  0.0000E+00              YY= -1.0978E+01
                  YZ=  0.0000E+00              ZZ= -1.4678E+01
      In traceless form (Debye*Ang)
                  XX=  1.8502E+00              XY=  0.0000E+00              XZ=  0.0000E+00              YY=  1.8502E+00
                  YZ=  0.0000E+00              ZZ= -3.7005E+00
--

      Von Neumann Entropy (Root  5) =  2.00000


      Mulliken population analysis for root number:  5
      -----------------------------------------------


++    Molecular charges:
      ------------------

      Mulliken charges per centre and basis function type
      ---------------------------------------------------

                N1      X1    
      1s       4.1121 -0.0999
      2px      1.0093  0.0042
      2pz      0.9394  0.0033
      2py      1.0093  0.0042
      3d2+     0.0000  0.0000
      3d1+     0.0000 -0.0315
      3d0      0.0114 -0.0358
      3d1-     0.0000 -0.0315
      3d2-     0.0000  0.0000
      4f3+     0.0000  0.0000
      4f2+     0.0000  0.0000
      4f1+     0.0043  0.0000
      4f0      0.0033  0.0000
      4f1-     0.0043  0.0000
      4f2-     0.0000  0.0000
      4f3-     0.0000  0.0000
      Total    7.0935 -0.1869

      N-E     -0.0935  0.1869

      Total electronic charge=   14.000000

      Total            charge=   -0.000000
--



      Expectation values of various properties for root number:  5
      -----------------------------------------------------------


++    Molecular properties:
      ---------------------

      Charge (e):
                      =   -0.0000
      Dipole Moment (Debye):
      Origin of the operator (Ang)=    0.0000    0.0000    0.0000
                   X=  0.0000E+00               Y=  0.0000E+00               Z=  0.0000E+00           Total=  0.0000E+00
      Quadrupole Moment (Debye*Ang):
      Origin of the operator (Ang)=    0.0000    0.0000    0.0000
                  XX= -1.0976E+01              XY=  0.0000E+00              XZ=  0.0000E+00              YY= -1.0976E+01
                  YZ=  0.0000E+00              ZZ= -1.4673E+01
      In traceless form (Debye*Ang)
                  XX=  1.8481E+00              XY=  0.0000E+00              XZ=  0.0000E+00              YY=  1.8481E+00
                  YZ=  0.0000E+00              ZZ= -3.6962E+00
--

      Von Neumann Entropy (Root  6) =  2.00000


      Mulliken population analysis for root number:  6
      -----------------------------------------------


++    Molecular charges:
      ------------------

      Mulliken charges per centre and basis function type
      ---------------------------------------------------

                N1      X1    
      1s       4.1121 -0.0999
      2px      1.0094  0.0042
      2pz      0.9394  0.0033
      2py      1.0094  0.0042
      3d2+     0.0000  0.0000
      3d1+    -0.0000 -0.0315
      3d0      0.0114 -0.0358
      3d1-    -0.0000 -0.0315
      3d2-     0.0000  0.0000
      4f3+     0.0000  0.0000
      4f2+     0.0000  0.0000
      4f1+     0.0043  0.0000
      4f0      0.0033  0.0000
      4f1-     0.0043  0.0000
      4f2-     0.0000  0.0000
      4f3-     0.0000  0.0000
      Total    7.0935 -0.1870

      N-E     -0.0935  0.1870

      Total electronic charge=   14.000000

      Total            charge=   -0.000000
--



      Expectation values of various properties for root number:  6
      -----------------------------------------------------------


++    Molecular properties:
      ---------------------

      Charge (e):
                      =   -0.0000
      Dipole Moment (Debye):
      Origin of the operator (Ang)=    0.0000    0.0000    0.0000
[...]
CASE  SYMM ACTIVE-MIX  NON-ACTIVE INDICES          DENOMINATOR     RHS VALUE       COEFFICIENT     CONTRIBUTION
VJTIP    1  Mu1.0002  In5.002 In5.002               1.82596949     -0.06146484      0.03369351     -0.00207097
VJTIP    5  Mu5.0002  In5.002 In1.002               2.26829219      0.06852468     -0.03032922     -0.00207830
VJTIP    5  Mu5.0002  In5.002 In1.003               1.30203249      0.05456745     -0.04118717     -0.00224748
ATVX     2  Mu2.0006  Se2.003                       0.88035639     -0.02858171      0.03096569     -0.00088505
ATVX     2  Mu2.0006  Se2.004                       0.81100014     -0.03357637      0.03965198     -0.00133137
ATVX     2  Mu2.0006  Se2.005                       0.98193498     -0.04302078      0.04155706     -0.00178782
ATVX     2  Mu2.0001  Se2.006                      -0.13924483     -0.00166693     -0.01115707      0.00001860
ATVX     2  Mu2.0001  Se2.007                       0.04332948      0.00244491     -0.07056063     -0.00017251
ATVX     2  Mu2.0006  Se2.007                       1.41329006     -0.06690809      0.04437973     -0.00296936
ATVX     2  Mu2.0008  Se2.007                       1.47673565     -0.04310106      0.02761094     -0.00119006
ATVX     3  Mu3.0006  Se3.003                       0.82790973     -0.03246298      0.03746577     -0.00121625
ATVX     3  Mu3.0006  Se3.004                       0.89849046      0.02874762     -0.03045445     -0.00087549
ATVX     3  Mu3.0006  Se3.005                       1.00147093      0.04205082     -0.03974064     -0.00167113
ATVX     3  Mu3.0001  Se3.006                      -0.09467942      0.00163536      0.01622005      0.00002653
ATVX     3  Mu3.0001  Se3.007                       0.08676058     -0.00216057      0.02690723     -0.00005814
ATVX     3  Mu3.0006  Se3.007                       1.42981504      0.06575487     -0.04300521     -0.00282780
ATVX     3  Mu3.0008  Se3.007                       1.46689253     -0.03867097      0.02604047     -0.00100701
ATVX     6  Mu6.0005  Se6.005                       0.71553600     -0.05124907      0.06737033     -0.00345267
ATVX     6  Mu6.0005  Se6.006                       0.88840223      0.03533029     -0.03676875     -0.00129905
ATVX     6  Mu6.0005  Se6.007                       1.30444308      0.04788836     -0.03341444     -0.00160016
ATVX     7  Mu7.0001  Se7.005                       0.13516922     -0.01323740      0.12940954     -0.00171305
ATVX     7  Mu7.0002  Se7.005                       0.15987629      0.01343669     -0.10844828     -0.00145719
ATVX     7  Mu7.0003  Se7.005                       0.18730454      0.00055572     -0.00312250     -0.00000174
ATVX     7  Mu7.0004  Se7.005                       0.28372978     -0.00425211      0.01921987     -0.00008172
AIVX     1  Mu1.0003  In1.003 Se1.005               0.98542202      0.04457799     -0.04410652     -0.00196618
AIVX     1  Mu1.0004  In1.003 Se1.005               1.00771202      0.03905841     -0.03763775     -0.00147007
AIVX     1  Mu1.0003  In1.003 Se1.011               1.24423102     -0.04324261      0.03327907     -0.00143907
AIVX     1  Mu1.0004  In1.003 Se1.011               1.26652102     -0.03927348      0.02952792     -0.00115966
AIVX     1  Mu1.0003  In1.003 Se1.014               1.45367192     -0.05052654      0.03312741     -0.00167381
AIVX     1  Mu1.0004  In1.003 Se1.014               1.47596192     -0.04561716      0.02926730     -0.00133509
AIVX     1  Mu1.0003  In5.002 Se5.007               1.40825990      0.04043260     -0.02771961     -0.00112078
AIVX     5  Mu5.0001  In1.003 Se5.003               0.26842933     -0.00005192      0.00027577     -0.00000001
AIVX     5  Mu5.0001  In1.003 Se5.004               0.24369671     -0.00088108      0.00329259     -0.00000290
AIVX     5  Mu5.0007  In1.003 Se5.009               2.08508623      0.06119985     -0.02935255     -0.00179637
AIVX     5  Mu5.0007  In1.003 Se5.011               2.45672546      0.07659990     -0.03117181     -0.00238776
BVATP    1  Mu1.0001  Se1.005 Se1.004               0.26839471      0.00010411     -0.00038791     -0.00000004
BVATP    1  Mu1.0001  Se1.005 Se1.005               0.21364972      0.00016376     -0.00076650     -0.00000013
BVATP    1  Mu1.0001  Se1.006 Se1.005               0.29081619      0.00006302     -0.00021669     -0.00000001
BVATP    1  Mu1.0001  Se1.007 Se1.005               0.28376153     -0.00035720      0.00125880     -0.00000045
BVATP    1  Mu1.0001  Se2.004 Se2.004               0.27344590     -0.00002140     -0.00004864      0.00000000
BVATP    1  Mu1.0001  Se3.003 Se3.003               0.27727445      0.00042176     -0.00159712     -0.00000067
BVATP    1  Mu1.0001  Se5.004 Se5.004               0.29352431      0.00041272     -0.00140607     -0.00000058
--

   (Skipping property calculation,
    use PROP keyword to activate)
--


  Total CASPT2 energies:
::    CASPT2 Root  1     Total energy:   -109.35465182
::    CASPT2 Root  2     Total energy:   -108.71866059
::    CASPT2 Root  3     Total energy:   -108.65079912
::    CASPT2 Root  4     Total energy:   -108.57686437
::    CASPT2 Root  5     Total energy:   -108.54929783
::    CASPT2 Root  6     Total energy:   -108.56172225
::    CASPT2 Root  7     Total energy:   -108.46000728
::    CASPT2 Root  8     Total energy:   -108.44704619
::    CASPT2 Root  9     Total energy:   -108.41306923
::    CASPT2 Root 10     Total energy:   -108.40824865


++ Multi-State CASPT2 section:
********************************************************************************
  MULTI-STATE CASPT2 SECTION
--------------------------------------------------------------------------------

  Output diagonal energies have been shifted. Add   -109.00000000000000     

  Effective Hamiltonian matrix (Symmetric):

                1               2               3               4               5
   1        -0.35465182
   2         0.00822611      0.28133941
   3        -0.00054219      0.00006027      0.34920088
   4         0.00059363     -0.00071755     -0.00038930      0.42313563
   5         0.01303161     -0.00564817     -0.00085825      0.00229051      0.45070217
   6        -0.00154606      0.00186520      0.00157598      0.00385453      0.00029710
   7         0.00146479      0.00351845     -0.00046581     -0.00228116      0.00150780
   8        -0.00097618      0.00108988     -0.00059778     -0.00069631      0.00190456
   9        -0.00102725      0.00017669     -0.00206382     -0.00010759      0.00061792
  10         0.00067577     -0.00045068     -0.00215720      0.00013810     -0.00042044

                6               7               8               9              10
   6         0.43827775
   7         0.03221588      0.53999272
   8         0.01023525     -0.00347670      0.55295381
   9        -0.01178099      0.00987879      0.00306754      0.58693077
  10         0.00625015     -0.00267057      0.00445423      0.00107238      0.59175135

       Total MS-CASPT2 energies:
::    MS-CASPT2 Root  1     Total energy:   -109.35498051
::    MS-CASPT2 Root  2     Total energy:   -108.71880179
::    MS-CASPT2 Root  3     Total energy:   -108.65088032
::    MS-CASPT2 Root  4     Total energy:   -108.57997749
::    MS-CASPT2 Root  5     Total energy:   -108.57057308
::    MS-CASPT2 Root  6     Total energy:   -108.54876085
::    MS-CASPT2 Root  7     Total energy:   -108.45162959
::    MS-CASPT2 Root  8     Total energy:   -108.44672620
::    MS-CASPT2 Root  9     Total energy:   -108.41083514
::    MS-CASPT2 Root 10     Total energy:   -108.40720237

       Eigenvectors:
            0.99977678      0.01359680     -0.00056461      0.00083113     -0.00238904
           -0.01306967      0.99924153     -0.00017861     -0.00411479      0.00326214
            0.00074697     -0.00021816      0.99964964     -0.01617775      0.01417682
           -0.00074032      0.00449430      0.00625581      0.82804694      0.55425212
           -0.01626128      0.03236912      0.00826742     -0.06825358     -0.04834366
            0.00206306     -0.00913740     -0.02013391     -0.52665339      0.79154506
           -0.00164393     -0.01269228      0.00567346      0.16387371     -0.22829397
            0.00109491     -0.00401313      0.00366646      0.05055261     -0.06880558
            0.00114536     -0.00050442      0.00733171     -0.04733172      0.07582602
           -0.00074997      0.00159490      0.00938111      0.01965027     -0.03323589

            0.01583647      0.00140046     -0.00117441     -0.00075207      0.00030553
           -0.03310886      0.01450562      0.00213763      0.00250740     -0.00069396
           -0.00866488      0.00134852     -0.00062368     -0.00746146     -0.01021432
            0.08365426     -0.00803885     -0.00126857     -0.00420839      0.00099690
            0.99552122      0.01583616      0.01621666      0.00689142     -0.00020546
           -0.00233668      0.30132007      0.04184095     -0.04369831      0.03376454
           -0.01314956      0.93214455     -0.14694222      0.17364096     -0.00465912
           -0.01785946      0.12299548      0.97922229      0.03199703      0.13165309
           -0.00330166     -0.15692018     -0.02773689      0.96745021      0.17490204
            0.00302655      0.00559602     -0.12938614     -0.17557858      0.97509438

--

  THE ORIGINAL CI ARRAYS ARE NOW MIXED AS LINEAR
  COMBINATIONS, GIVEN BY THE EIGENVECTORS.
  A NEW JOBIPH FILE NAMED 'JOBMIX' IS PREPARED.
********************************************************************************

++ Mixed CI coefficients:
  The CI coefficients for the MIXED state nr.   1
--------------------------------------------------------------------------------
 CI COEFFICIENTS LARGER THAN  0.50D-01
  Occupation of active orbitals, and spin coupling
  of open shells. (u,d: Spin up or down).
  SGUGA info is (Midvert:IsyUp:UpperWalk/LowerWalk)
        Conf  SGUGA info        Occupation        Coefficient         Weight
           1  ( 1:1:   1/   1)   2 2 0000 0000      -0.968885       0.938737
           3  ( 1:1:   1/   3)   0 2 2000 0000       0.122774       0.015074
          34  ( 2:7:   1/   1)   u d u000 d000      -0.112328       0.012618
          38  ( 2:7:   1/   2)   u u d000 d000       0.105472       0.011124
          59  ( 3:1:   2/   1)   2 0 0000 2000       0.124498       0.015500

  The CI coefficients for the MIXED state nr.   2
--------------------------------------------------------------------------------
 CI COEFFICIENTS LARGER THAN  0.50D-01
  Occupation of active orbitals, and spin coupling
  of open shells. (u,d: Spin up or down).
  SGUGA info is (Midvert:IsyUp:UpperWalk/LowerWalk)
        Conf  SGUGA info        Occupation        Coefficient         Weight
           1  ( 1:1:   1/   1)   2 2 0000 0000       0.076306       0.005823
           2  ( 1:1:   1/   2)   2 0 2000 0000      -0.123035       0.015138
           3  ( 1:1:   1/   3)   0 2 2000 0000       0.373502       0.139504
          34  ( 2:7:   1/   1)   u d u000 d000      -0.482996       0.233285
          38  ( 2:7:   1/   2)   u u d000 d000      -0.670039       0.448953
          59  ( 3:1:   2/   1)   2 0 0000 2000       0.366455       0.134289
          70  ( 3:1:   2/   2)   0 2 0000 2000      -0.123117       0.015158

  The CI coefficients for the MIXED state nr.   3
--------------------------------------------------------------------------------
 CI COEFFICIENTS LARGER THAN  0.50D-01
  Occupation of active orbitals, and spin coupling
  of open shells. (u,d: Spin up or down).
  SGUGA info is (Midvert:IsyUp:UpperWalk/LowerWalk)
        Conf  SGUGA info        Occupation        Coefficient         Weight
           2  ( 1:1:   1/   2)   2 0 2000 0000      -0.339217       0.115068
           3  ( 1:1:   1/   3)   0 2 2000 0000       0.365942       0.133914
          34  ( 2:7:   1/   1)   u d u000 d000       0.710643       0.505013
          59  ( 3:1:   2/   1)   2 0 0000 2000       0.337967       0.114222
          70  ( 3:1:   2/   2)   0 2 0000 2000      -0.356156       0.126847

  The CI coefficients for the MIXED state nr.   4
--------------------------------------------------------------------------------
 CI COEFFICIENTS LARGER THAN  0.50D-01
  Occupation of active orbitals, and spin coupling
  of open shells. (u,d: Spin up or down).
  SGUGA info is (Midvert:IsyUp:UpperWalk/LowerWalk)
        Conf  SGUGA info        Occupation        Coefficient         Weight
           2  ( 1:1:   1/   2)   2 0 2000 0000      -0.575906       0.331668
           3  ( 1:1:   1/   3)   0 2 2000 0000       0.399708       0.159766
          10  ( 1:1:   1/  10)   0 2 u0d0 0000       0.084194       0.007089
          41  ( 2:7:   4/   2)   u u d000 000d       0.061274       0.003755
          54  ( 2:7:   1/   6)   u u 00d0 d000      -0.068247       0.004658
          59  ( 3:1:   2/   1)   2 0 0000 2000      -0.412532       0.170183
          65  ( 3:1:   8/   1)   2 0 0000 u00d      -0.061736       0.003811
          70  ( 3:1:   2/   2)   0 2 0000 2000       0.549873       0.302360

  The CI coefficients for the MIXED state nr.   5
--------------------------------------------------------------------------------
 CI COEFFICIENTS LARGER THAN  0.50D-01
  Occupation of active orbitals, and spin coupling
  of open shells. (u,d: Spin up or down).
  SGUGA info is (Midvert:IsyUp:UpperWalk/LowerWalk)
        Conf  SGUGA info        Occupation        Coefficient         Weight
           2  ( 1:1:   1/   2)   2 0 2000 0000      -0.451118       0.203508
           3  ( 1:1:   1/   3)   0 2 2000 0000      -0.548222       0.300547
           5  ( 1:1:   1/   5)   0 2 ud00 0000       0.059240       0.003509
          10  ( 1:1:   1/  10)   0 2 u0d0 0000      -0.098456       0.009694
          41  ( 2:7:   4/   2)   u u d000 000d      -0.066072       0.004365
          54  ( 2:7:   1/   6)   u u 00d0 d000       0.080800       0.006529
          59  ( 3:1:   2/   1)   2 0 0000 2000       0.545594       0.297673
          65  ( 3:1:   8/   1)   2 0 0000 u00d       0.070476       0.004967
          70  ( 3:1:   2/   2)   0 2 0000 2000       0.394440       0.155583

  The CI coefficients for the MIXED state nr.   6
--------------------------------------------------------------------------------
 CI COEFFICIENTS LARGER THAN  0.50D-01
  Occupation of active orbitals, and spin coupling
  of open shells. (u,d: Spin up or down).
  SGUGA info is (Midvert:IsyUp:UpperWalk/LowerWalk)
        Conf  SGUGA info        Occupation        Coefficient         Weight
           2  ( 1:1:   1/   2)   2 0 2000 0000       0.573178       0.328533
           3  ( 1:1:   1/   3)   0 2 2000 0000       0.282554       0.079836
          34  ( 2:7:   1/   1)   u d u000 d000       0.299152       0.089492
          38  ( 2:7:   1/   2)   u u d000 d000      -0.105448       0.011119
          59  ( 3:1:   2/   1)   2 0 0000 2000       0.299239       0.089544
          70  ( 3:1:   2/   2)   0 2 0000 2000       0.623599       0.388875

  The CI coefficients for the MIXED state nr.   7
--------------------------------------------------------------------------------
 CI COEFFICIENTS LARGER THAN  0.50D-01
  Occupation of active orbitals, and spin coupling
  of open shells. (u,d: Spin up or down).
  SGUGA info is (Midvert:IsyUp:UpperWalk/LowerWalk)
        Conf  SGUGA info        Occupation        Coefficient         Weight
           4  ( 1:1:   1/   4)   2 0 ud00 0000       0.181960       0.033109
           5  ( 1:1:   1/   5)   0 2 ud00 0000      -0.517136       0.267430
           7  ( 1:1:   1/   7)   0 2 0200 0000       0.050215       0.002522
           9  ( 1:1:   1/   9)   2 0 u0d0 0000       0.053345       0.002846
          10  ( 1:1:   1/  10)   0 2 u0d0 0000      -0.155658       0.024229
          42  ( 2:7:   1/   3)   u d 0u00 d000       0.465172       0.216385
          45  ( 2:7:   4/   3)   u d 0u00 000d      -0.057569       0.003314
          46  ( 2:7:   1/   4)   u u 0d00 d000       0.602674       0.363216
          49  ( 2:7:   4/   4)   u u 0d00 000d      -0.067548       0.004563
          50  ( 2:7:   1/   5)   u d 00u0 d000       0.164195       0.026960
          54  ( 2:7:   1/   6)   u u 00d0 d000       0.196852       0.038751

  The CI coefficients for the MIXED state nr.   8
--------------------------------------------------------------------------------
 CI COEFFICIENTS LARGER THAN  0.50D-01
  Occupation of active orbitals, and spin coupling
  of open shells. (u,d: Spin up or down).
  SGUGA info is (Midvert:IsyUp:UpperWalk/LowerWalk)
        Conf  SGUGA info        Occupation        Coefficient         Weight
           3  ( 1:1:   1/   3)   0 2 2000 0000       0.053311       0.002842
          35  ( 2:7:   2/   1)   u d u000 0d00      -0.525910       0.276581
          39  ( 2:7:   2/   2)   u u d000 0d00      -0.643420       0.413989
          60  ( 3:1:   3/   1)   2 0 0000 ud00       0.509910       0.260008
          61  ( 3:1:   4/   1)   2 0 0000 0200      -0.057843       0.003346
          66  ( 3:1:   9/   1)   2 0 0000 0u0d      -0.061650       0.003801
          71  ( 3:1:   3/   2)   0 2 0000 ud00      -0.156308       0.024432

  The CI coefficients for the MIXED state nr.   9
--------------------------------------------------------------------------------
 CI COEFFICIENTS LARGER THAN  0.50D-01
  Occupation of active orbitals, and spin coupling
  of open shells. (u,d: Spin up or down).
  SGUGA info is (Midvert:IsyUp:UpperWalk/LowerWalk)
        Conf  SGUGA info        Occupation        Coefficient         Weight
           4  ( 1:1:   1/   4)   2 0 ud00 0000      -0.427359       0.182636
           5  ( 1:1:   1/   5)   0 2 ud00 0000       0.494905       0.244931
           9  ( 1:1:   1/   9)   2 0 u0d0 0000      -0.120003       0.014401
          10  ( 1:1:   1/  10)   0 2 u0d0 0000       0.105398       0.011109
          35  ( 2:7:   2/   1)   u d u000 0d00      -0.088681       0.007864
          42  ( 2:7:   1/   3)   u d 0u00 d000       0.650902       0.423673
          45  ( 2:7:   4/   3)   u d 0u00 000d      -0.072208       0.005214
          50  ( 2:7:   1/   5)   u d 00u0 d000       0.280783       0.078839
          54  ( 2:7:   1/   6)   u u 00d0 d000       0.068809       0.004735
          60  ( 3:1:   3/   1)   2 0 0000 ud00      -0.082206       0.006758
          71  ( 3:1:   3/   2)   0 2 0000 ud00       0.074729       0.005584

  The CI coefficients for the MIXED state nr.  10
--------------------------------------------------------------------------------
 CI COEFFICIENTS LARGER THAN  0.50D-01
  Occupation of active orbitals, and spin coupling
  of open shells. (u,d: Spin up or down).
  SGUGA info is (Midvert:IsyUp:UpperWalk/LowerWalk)
        Conf  SGUGA info        Occupation        Coefficient         Weight
           4  ( 1:1:   1/   4)   2 0 ud00 0000      -0.062173       0.003866
           5  ( 1:1:   1/   5)   0 2 ud00 0000       0.053748       0.002889
          35  ( 2:7:   2/   1)   u d u000 0d00       0.664712       0.441842
          42  ( 2:7:   1/   3)   u d 0u00 d000       0.113462       0.012874
          43  ( 2:7:   2/   3)   u d 0u00 0d00      -0.053814       0.002896
          60  ( 3:1:   3/   1)   2 0 0000 ud00       0.480824       0.231192
          61  ( 3:1:   4/   1)   2 0 0000 0200      -0.053927       0.002908
          66  ( 3:1:   9/   1)   2 0 0000 0u0d      -0.055610       0.003093
          71  ( 3:1:   3/   2)   0 2 0000 ud00      -0.528761       0.279588
          72  ( 3:1:   4/   2)   0 2 0000 0200       0.058989       0.003480
          77  ( 3:1:   9/   2)   0 2 0000 0u0d       0.058561       0.003429

--

--- Stop Module: caspt2 at Thu Aug 20 06:10:03 2020 /rc=_RC_ALL_IS_WELL_ ---
*** files: xmldump
    saved to directory /home/gayverjr/OpenCAP/molcas_example
--- Module caspt2 spent 15 seconds ---

.##################.
.# Happy landing! #.
.##################.

    Timing: Wall=83.12 User=397.39 System=17.73
